; Gromacs awesome itp file
; File generated by the atom Toolbox in MATLAB at 2025-04-29 16:02:26
; Structure with 1800 atoms, 720, bonds and 9720 angles

[ moleculetype ]
; molname   nrexcl
MIN       1

[ atoms ]
; id   attype  resnr resname  atname   cgnr  charge      mass
1      Cah       1     MIN     Cah       1	 1.520000	 40.07800
2       Oh       1     MIN      Oh       2	-1.160000	 15.99940
3        H       1     MIN       H       3	 0.400000	 1.007940
4       Oh       1     MIN      Oh       4	-1.160000	 15.99940
5        H       1     MIN       H       5	 0.400000	 1.007940
6      Cah       1     MIN     Cah       6	 1.520000	 40.07800
7       Oh       1     MIN      Oh       7	-1.160000	 15.99940
8        H       1     MIN       H       8	 0.400000	 1.007940
9       Oh       1     MIN      Oh       9	-1.160000	 15.99940
10       H       1     MIN       H      10	 0.400000	 1.007940
11     Cah       1     MIN     Cah      11	 1.520000	 40.07800
12      Oh       1     MIN      Oh      12	-1.160000	 15.99940
13       H       1     MIN       H      13	 0.400000	 1.007940
14      Oh       1     MIN      Oh      14	-1.160000	 15.99940
15       H       1     MIN       H      15	 0.400000	 1.007940
16     Cah       1     MIN     Cah      16	 1.520000	 40.07800
17      Oh       1     MIN      Oh      17	-1.160000	 15.99940
18       H       1     MIN       H      18	 0.400000	 1.007940
19      Oh       1     MIN      Oh      19	-1.160000	 15.99940
20       H       1     MIN       H      20	 0.400000	 1.007940
21     Cah       1     MIN     Cah      21	 1.520000	 40.07800
22      Oh       1     MIN      Oh      22	-1.160000	 15.99940
23       H       1     MIN       H      23	 0.400000	 1.007940
24      Oh       1     MIN      Oh      24	-1.160000	 15.99940
25       H       1     MIN       H      25	 0.400000	 1.007940
26     Cah       1     MIN     Cah      26	 1.520000	 40.07800
27      Oh       1     MIN      Oh      27	-1.160000	 15.99940
28       H       1     MIN       H      28	 0.400000	 1.007940
29      Oh       1     MIN      Oh      29	-1.160000	 15.99940
30       H       1     MIN       H      30	 0.400000	 1.007940
31     Cah       1     MIN     Cah      31	 1.520000	 40.07800
32      Oh       1     MIN      Oh      32	-1.160000	 15.99940
33       H       1     MIN       H      33	 0.400000	 1.007940
34      Oh       1     MIN      Oh      34	-1.160000	 15.99940
35       H       1     MIN       H      35	 0.400000	 1.007940
36     Cah       1     MIN     Cah      36	 1.520000	 40.07800
37      Oh       1     MIN      Oh      37	-1.160000	 15.99940
38       H       1     MIN       H      38	 0.400000	 1.007940
39      Oh       1     MIN      Oh      39	-1.160000	 15.99940
40       H       1     MIN       H      40	 0.400000	 1.007940
41     Cah       1     MIN     Cah      41	 1.520000	 40.07800
42      Oh       1     MIN      Oh      42	-1.160000	 15.99940
43       H       1     MIN       H      43	 0.400000	 1.007940
44      Oh       1     MIN      Oh      44	-1.160000	 15.99940
45       H       1     MIN       H      45	 0.400000	 1.007940
46     Cah       1     MIN     Cah      46	 1.520000	 40.07800
47      Oh       1     MIN      Oh      47	-1.160000	 15.99940
48       H       1     MIN       H      48	 0.400000	 1.007940
49      Oh       1     MIN      Oh      49	-1.160000	 15.99940
50       H       1     MIN       H      50	 0.400000	 1.007940
51     Cah       1     MIN     Cah      51	 1.520000	 40.07800
52      Oh       1     MIN      Oh      52	-1.160000	 15.99940
53       H       1     MIN       H      53	 0.400000	 1.007940
54      Oh       1     MIN      Oh      54	-1.160000	 15.99940
55       H       1     MIN       H      55	 0.400000	 1.007940
56     Cah       1     MIN     Cah      56	 1.520000	 40.07800
57      Oh       1     MIN      Oh      57	-1.160000	 15.99940
58       H       1     MIN       H      58	 0.400000	 1.007940
59      Oh       1     MIN      Oh      59	-1.160000	 15.99940
60       H       1     MIN       H      60	 0.400000	 1.007940
61     Cah       1     MIN     Cah      61	 1.520000	 40.07800
62      Oh       1     MIN      Oh      62	-1.160000	 15.99940
63       H       1     MIN       H      63	 0.400000	 1.007940
64      Oh       1     MIN      Oh      64	-1.160000	 15.99940
65       H       1     MIN       H      65	 0.400000	 1.007940
66     Cah       1     MIN     Cah      66	 1.520000	 40.07800
67      Oh       1     MIN      Oh      67	-1.160000	 15.99940
68       H       1     MIN       H      68	 0.400000	 1.007940
69      Oh       1     MIN      Oh      69	-1.160000	 15.99940
70       H       1     MIN       H      70	 0.400000	 1.007940
71     Cah       1     MIN     Cah      71	 1.520000	 40.07800
72      Oh       1     MIN      Oh      72	-1.160000	 15.99940
73       H       1     MIN       H      73	 0.400000	 1.007940
74      Oh       1     MIN      Oh      74	-1.160000	 15.99940
75       H       1     MIN       H      75	 0.400000	 1.007940
76     Cah       1     MIN     Cah      76	 1.520000	 40.07800
77      Oh       1     MIN      Oh      77	-1.160000	 15.99940
78       H       1     MIN       H      78	 0.400000	 1.007940
79      Oh       1     MIN      Oh      79	-1.160000	 15.99940
80       H       1     MIN       H      80	 0.400000	 1.007940
81     Cah       1     MIN     Cah      81	 1.520000	 40.07800
82      Oh       1     MIN      Oh      82	-1.160000	 15.99940
83       H       1     MIN       H      83	 0.400000	 1.007940
84      Oh       1     MIN      Oh      84	-1.160000	 15.99940
85       H       1     MIN       H      85	 0.400000	 1.007940
86     Cah       1     MIN     Cah      86	 1.520000	 40.07800
87      Oh       1     MIN      Oh      87	-1.160000	 15.99940
88       H       1     MIN       H      88	 0.400000	 1.007940
89      Oh       1     MIN      Oh      89	-1.160000	 15.99940
90       H       1     MIN       H      90	 0.400000	 1.007940
91     Cah       1     MIN     Cah      91	 1.520000	 40.07800
92      Oh       1     MIN      Oh      92	-1.160000	 15.99940
93       H       1     MIN       H      93	 0.400000	 1.007940
94      Oh       1     MIN      Oh      94	-1.160000	 15.99940
95       H       1     MIN       H      95	 0.400000	 1.007940
96     Cah       1     MIN     Cah      96	 1.520000	 40.07800
97      Oh       1     MIN      Oh      97	-1.160000	 15.99940
98       H       1     MIN       H      98	 0.400000	 1.007940
99      Oh       1     MIN      Oh      99	-1.160000	 15.99940
100      H       1     MIN       H     100	 0.400000	 1.007940
101    Cah       1     MIN     Cah     101	 1.520000	 40.07800
102     Oh       1     MIN      Oh     102	-1.160000	 15.99940
103      H       1     MIN       H     103	 0.400000	 1.007940
104     Oh       1     MIN      Oh     104	-1.160000	 15.99940
105      H       1     MIN       H     105	 0.400000	 1.007940
106    Cah       1     MIN     Cah     106	 1.520000	 40.07800
107     Oh       1     MIN      Oh     107	-1.160000	 15.99940
108      H       1     MIN       H     108	 0.400000	 1.007940
109     Oh       1     MIN      Oh     109	-1.160000	 15.99940
110      H       1     MIN       H     110	 0.400000	 1.007940
111    Cah       1     MIN     Cah     111	 1.520000	 40.07800
112     Oh       1     MIN      Oh     112	-1.160000	 15.99940
113      H       1     MIN       H     113	 0.400000	 1.007940
114     Oh       1     MIN      Oh     114	-1.160000	 15.99940
115      H       1     MIN       H     115	 0.400000	 1.007940
116    Cah       1     MIN     Cah     116	 1.520000	 40.07800
117     Oh       1     MIN      Oh     117	-1.160000	 15.99940
118      H       1     MIN       H     118	 0.400000	 1.007940
119     Oh       1     MIN      Oh     119	-1.160000	 15.99940
120      H       1     MIN       H     120	 0.400000	 1.007940
121    Cah       1     MIN     Cah     121	 1.520000	 40.07800
122     Oh       1     MIN      Oh     122	-1.160000	 15.99940
123      H       1     MIN       H     123	 0.400000	 1.007940
124     Oh       1     MIN      Oh     124	-1.160000	 15.99940
125      H       1     MIN       H     125	 0.400000	 1.007940
126    Cah       1     MIN     Cah     126	 1.520000	 40.07800
127     Oh       1     MIN      Oh     127	-1.160000	 15.99940
128      H       1     MIN       H     128	 0.400000	 1.007940
129     Oh       1     MIN      Oh     129	-1.160000	 15.99940
130      H       1     MIN       H     130	 0.400000	 1.007940
131    Cah       1     MIN     Cah     131	 1.520000	 40.07800
132     Oh       1     MIN      Oh     132	-1.160000	 15.99940
133      H       1     MIN       H     133	 0.400000	 1.007940
134     Oh       1     MIN      Oh     134	-1.160000	 15.99940
135      H       1     MIN       H     135	 0.400000	 1.007940
136    Cah       1     MIN     Cah     136	 1.520000	 40.07800
137     Oh       1     MIN      Oh     137	-1.160000	 15.99940
138      H       1     MIN       H     138	 0.400000	 1.007940
139     Oh       1     MIN      Oh     139	-1.160000	 15.99940
140      H       1     MIN       H     140	 0.400000	 1.007940
141    Cah       1     MIN     Cah     141	 1.520000	 40.07800
142     Oh       1     MIN      Oh     142	-1.160000	 15.99940
143      H       1     MIN       H     143	 0.400000	 1.007940
144     Oh       1     MIN      Oh     144	-1.160000	 15.99940
145      H       1     MIN       H     145	 0.400000	 1.007940
146    Cah       1     MIN     Cah     146	 1.520000	 40.07800
147     Oh       1     MIN      Oh     147	-1.160000	 15.99940
148      H       1     MIN       H     148	 0.400000	 1.007940
149     Oh       1     MIN      Oh     149	-1.160000	 15.99940
150      H       1     MIN       H     150	 0.400000	 1.007940
151    Cah       1     MIN     Cah     151	 1.520000	 40.07800
152     Oh       1     MIN      Oh     152	-1.160000	 15.99940
153      H       1     MIN       H     153	 0.400000	 1.007940
154     Oh       1     MIN      Oh     154	-1.160000	 15.99940
155      H       1     MIN       H     155	 0.400000	 1.007940
156    Cah       1     MIN     Cah     156	 1.520000	 40.07800
157     Oh       1     MIN      Oh     157	-1.160000	 15.99940
158      H       1     MIN       H     158	 0.400000	 1.007940
159     Oh       1     MIN      Oh     159	-1.160000	 15.99940
160      H       1     MIN       H     160	 0.400000	 1.007940
161    Cah       1     MIN     Cah     161	 1.520000	 40.07800
162     Oh       1     MIN      Oh     162	-1.160000	 15.99940
163      H       1     MIN       H     163	 0.400000	 1.007940
164     Oh       1     MIN      Oh     164	-1.160000	 15.99940
165      H       1     MIN       H     165	 0.400000	 1.007940
166    Cah       1     MIN     Cah     166	 1.520000	 40.07800
167     Oh       1     MIN      Oh     167	-1.160000	 15.99940
168      H       1     MIN       H     168	 0.400000	 1.007940
169     Oh       1     MIN      Oh     169	-1.160000	 15.99940
170      H       1     MIN       H     170	 0.400000	 1.007940
171    Cah       1     MIN     Cah     171	 1.520000	 40.07800
172     Oh       1     MIN      Oh     172	-1.160000	 15.99940
173      H       1     MIN       H     173	 0.400000	 1.007940
174     Oh       1     MIN      Oh     174	-1.160000	 15.99940
175      H       1     MIN       H     175	 0.400000	 1.007940
176    Cah       1     MIN     Cah     176	 1.520000	 40.07800
177     Oh       1     MIN      Oh     177	-1.160000	 15.99940
178      H       1     MIN       H     178	 0.400000	 1.007940
179     Oh       1     MIN      Oh     179	-1.160000	 15.99940
180      H       1     MIN       H     180	 0.400000	 1.007940
181    Cah       1     MIN     Cah     181	 1.520000	 40.07800
182     Oh       1     MIN      Oh     182	-1.160000	 15.99940
183      H       1     MIN       H     183	 0.400000	 1.007940
184     Oh       1     MIN      Oh     184	-1.160000	 15.99940
185      H       1     MIN       H     185	 0.400000	 1.007940
186    Cah       1     MIN     Cah     186	 1.520000	 40.07800
187     Oh       1     MIN      Oh     187	-1.160000	 15.99940
188      H       1     MIN       H     188	 0.400000	 1.007940
189     Oh       1     MIN      Oh     189	-1.160000	 15.99940
190      H       1     MIN       H     190	 0.400000	 1.007940
191    Cah       1     MIN     Cah     191	 1.520000	 40.07800
192     Oh       1     MIN      Oh     192	-1.160000	 15.99940
193      H       1     MIN       H     193	 0.400000	 1.007940
194     Oh       1     MIN      Oh     194	-1.160000	 15.99940
195      H       1     MIN       H     195	 0.400000	 1.007940
196    Cah       1     MIN     Cah     196	 1.520000	 40.07800
197     Oh       1     MIN      Oh     197	-1.160000	 15.99940
198      H       1     MIN       H     198	 0.400000	 1.007940
199     Oh       1     MIN      Oh     199	-1.160000	 15.99940
200      H       1     MIN       H     200	 0.400000	 1.007940
201    Cah       1     MIN     Cah     201	 1.520000	 40.07800
202     Oh       1     MIN      Oh     202	-1.160000	 15.99940
203      H       1     MIN       H     203	 0.400000	 1.007940
204     Oh       1     MIN      Oh     204	-1.160000	 15.99940
205      H       1     MIN       H     205	 0.400000	 1.007940
206    Cah       1     MIN     Cah     206	 1.520000	 40.07800
207     Oh       1     MIN      Oh     207	-1.160000	 15.99940
208      H       1     MIN       H     208	 0.400000	 1.007940
209     Oh       1     MIN      Oh     209	-1.160000	 15.99940
210      H       1     MIN       H     210	 0.400000	 1.007940
211    Cah       1     MIN     Cah     211	 1.520000	 40.07800
212     Oh       1     MIN      Oh     212	-1.160000	 15.99940
213      H       1     MIN       H     213	 0.400000	 1.007940
214     Oh       1     MIN      Oh     214	-1.160000	 15.99940
215      H       1     MIN       H     215	 0.400000	 1.007940
216    Cah       1     MIN     Cah     216	 1.520000	 40.07800
217     Oh       1     MIN      Oh     217	-1.160000	 15.99940
218      H       1     MIN       H     218	 0.400000	 1.007940
219     Oh       1     MIN      Oh     219	-1.160000	 15.99940
220      H       1     MIN       H     220	 0.400000	 1.007940
221    Cah       1     MIN     Cah     221	 1.520000	 40.07800
222     Oh       1     MIN      Oh     222	-1.160000	 15.99940
223      H       1     MIN       H     223	 0.400000	 1.007940
224     Oh       1     MIN      Oh     224	-1.160000	 15.99940
225      H       1     MIN       H     225	 0.400000	 1.007940
226    Cah       1     MIN     Cah     226	 1.520000	 40.07800
227     Oh       1     MIN      Oh     227	-1.160000	 15.99940
228      H       1     MIN       H     228	 0.400000	 1.007940
229     Oh       1     MIN      Oh     229	-1.160000	 15.99940
230      H       1     MIN       H     230	 0.400000	 1.007940
231    Cah       1     MIN     Cah     231	 1.520000	 40.07800
232     Oh       1     MIN      Oh     232	-1.160000	 15.99940
233      H       1     MIN       H     233	 0.400000	 1.007940
234     Oh       1     MIN      Oh     234	-1.160000	 15.99940
235      H       1     MIN       H     235	 0.400000	 1.007940
236    Cah       1     MIN     Cah     236	 1.520000	 40.07800
237     Oh       1     MIN      Oh     237	-1.160000	 15.99940
238      H       1     MIN       H     238	 0.400000	 1.007940
239     Oh       1     MIN      Oh     239	-1.160000	 15.99940
240      H       1     MIN       H     240	 0.400000	 1.007940
241    Cah       1     MIN     Cah     241	 1.520000	 40.07800
242     Oh       1     MIN      Oh     242	-1.160000	 15.99940
243      H       1     MIN       H     243	 0.400000	 1.007940
244     Oh       1     MIN      Oh     244	-1.160000	 15.99940
245      H       1     MIN       H     245	 0.400000	 1.007940
246    Cah       1     MIN     Cah     246	 1.520000	 40.07800
247     Oh       1     MIN      Oh     247	-1.160000	 15.99940
248      H       1     MIN       H     248	 0.400000	 1.007940
249     Oh       1     MIN      Oh     249	-1.160000	 15.99940
250      H       1     MIN       H     250	 0.400000	 1.007940
251    Cah       1     MIN     Cah     251	 1.520000	 40.07800
252     Oh       1     MIN      Oh     252	-1.160000	 15.99940
253      H       1     MIN       H     253	 0.400000	 1.007940
254     Oh       1     MIN      Oh     254	-1.160000	 15.99940
255      H       1     MIN       H     255	 0.400000	 1.007940
256    Cah       1     MIN     Cah     256	 1.520000	 40.07800
257     Oh       1     MIN      Oh     257	-1.160000	 15.99940
258      H       1     MIN       H     258	 0.400000	 1.007940
259     Oh       1     MIN      Oh     259	-1.160000	 15.99940
260      H       1     MIN       H     260	 0.400000	 1.007940
261    Cah       1     MIN     Cah     261	 1.520000	 40.07800
262     Oh       1     MIN      Oh     262	-1.160000	 15.99940
263      H       1     MIN       H     263	 0.400000	 1.007940
264     Oh       1     MIN      Oh     264	-1.160000	 15.99940
265      H       1     MIN       H     265	 0.400000	 1.007940
266    Cah       1     MIN     Cah     266	 1.520000	 40.07800
267     Oh       1     MIN      Oh     267	-1.160000	 15.99940
268      H       1     MIN       H     268	 0.400000	 1.007940
269     Oh       1     MIN      Oh     269	-1.160000	 15.99940
270      H       1     MIN       H     270	 0.400000	 1.007940
271    Cah       1     MIN     Cah     271	 1.520000	 40.07800
272     Oh       1     MIN      Oh     272	-1.160000	 15.99940
273      H       1     MIN       H     273	 0.400000	 1.007940
274     Oh       1     MIN      Oh     274	-1.160000	 15.99940
275      H       1     MIN       H     275	 0.400000	 1.007940
276    Cah       1     MIN     Cah     276	 1.520000	 40.07800
277     Oh       1     MIN      Oh     277	-1.160000	 15.99940
278      H       1     MIN       H     278	 0.400000	 1.007940
279     Oh       1     MIN      Oh     279	-1.160000	 15.99940
280      H       1     MIN       H     280	 0.400000	 1.007940
281    Cah       1     MIN     Cah     281	 1.520000	 40.07800
282     Oh       1     MIN      Oh     282	-1.160000	 15.99940
283      H       1     MIN       H     283	 0.400000	 1.007940
284     Oh       1     MIN      Oh     284	-1.160000	 15.99940
285      H       1     MIN       H     285	 0.400000	 1.007940
286    Cah       1     MIN     Cah     286	 1.520000	 40.07800
287     Oh       1     MIN      Oh     287	-1.160000	 15.99940
288      H       1     MIN       H     288	 0.400000	 1.007940
289     Oh       1     MIN      Oh     289	-1.160000	 15.99940
290      H       1     MIN       H     290	 0.400000	 1.007940
291    Cah       1     MIN     Cah     291	 1.520000	 40.07800
292     Oh       1     MIN      Oh     292	-1.160000	 15.99940
293      H       1     MIN       H     293	 0.400000	 1.007940
294     Oh       1     MIN      Oh     294	-1.160000	 15.99940
295      H       1     MIN       H     295	 0.400000	 1.007940
296    Cah       1     MIN     Cah     296	 1.520000	 40.07800
297     Oh       1     MIN      Oh     297	-1.160000	 15.99940
298      H       1     MIN       H     298	 0.400000	 1.007940
299     Oh       1     MIN      Oh     299	-1.160000	 15.99940
300      H       1     MIN       H     300	 0.400000	 1.007940
301    Cah       1     MIN     Cah     301	 1.520000	 40.07800
302     Oh       1     MIN      Oh     302	-1.160000	 15.99940
303      H       1     MIN       H     303	 0.400000	 1.007940
304     Oh       1     MIN      Oh     304	-1.160000	 15.99940
305      H       1     MIN       H     305	 0.400000	 1.007940
306    Cah       1     MIN     Cah     306	 1.520000	 40.07800
307     Oh       1     MIN      Oh     307	-1.160000	 15.99940
308      H       1     MIN       H     308	 0.400000	 1.007940
309     Oh       1     MIN      Oh     309	-1.160000	 15.99940
310      H       1     MIN       H     310	 0.400000	 1.007940
311    Cah       1     MIN     Cah     311	 1.520000	 40.07800
312     Oh       1     MIN      Oh     312	-1.160000	 15.99940
313      H       1     MIN       H     313	 0.400000	 1.007940
314     Oh       1     MIN      Oh     314	-1.160000	 15.99940
315      H       1     MIN       H     315	 0.400000	 1.007940
316    Cah       1     MIN     Cah     316	 1.520000	 40.07800
317     Oh       1     MIN      Oh     317	-1.160000	 15.99940
318      H       1     MIN       H     318	 0.400000	 1.007940
319     Oh       1     MIN      Oh     319	-1.160000	 15.99940
320      H       1     MIN       H     320	 0.400000	 1.007940
321    Cah       1     MIN     Cah     321	 1.520000	 40.07800
322     Oh       1     MIN      Oh     322	-1.160000	 15.99940
323      H       1     MIN       H     323	 0.400000	 1.007940
324     Oh       1     MIN      Oh     324	-1.160000	 15.99940
325      H       1     MIN       H     325	 0.400000	 1.007940
326    Cah       1     MIN     Cah     326	 1.520000	 40.07800
327     Oh       1     MIN      Oh     327	-1.160000	 15.99940
328      H       1     MIN       H     328	 0.400000	 1.007940
329     Oh       1     MIN      Oh     329	-1.160000	 15.99940
330      H       1     MIN       H     330	 0.400000	 1.007940
331    Cah       1     MIN     Cah     331	 1.520000	 40.07800
332     Oh       1     MIN      Oh     332	-1.160000	 15.99940
333      H       1     MIN       H     333	 0.400000	 1.007940
334     Oh       1     MIN      Oh     334	-1.160000	 15.99940
335      H       1     MIN       H     335	 0.400000	 1.007940
336    Cah       1     MIN     Cah     336	 1.520000	 40.07800
337     Oh       1     MIN      Oh     337	-1.160000	 15.99940
338      H       1     MIN       H     338	 0.400000	 1.007940
339     Oh       1     MIN      Oh     339	-1.160000	 15.99940
340      H       1     MIN       H     340	 0.400000	 1.007940
341    Cah       1     MIN     Cah     341	 1.520000	 40.07800
342     Oh       1     MIN      Oh     342	-1.160000	 15.99940
343      H       1     MIN       H     343	 0.400000	 1.007940
344     Oh       1     MIN      Oh     344	-1.160000	 15.99940
345      H       1     MIN       H     345	 0.400000	 1.007940
346    Cah       1     MIN     Cah     346	 1.520000	 40.07800
347     Oh       1     MIN      Oh     347	-1.160000	 15.99940
348      H       1     MIN       H     348	 0.400000	 1.007940
349     Oh       1     MIN      Oh     349	-1.160000	 15.99940
350      H       1     MIN       H     350	 0.400000	 1.007940
351    Cah       1     MIN     Cah     351	 1.520000	 40.07800
352     Oh       1     MIN      Oh     352	-1.160000	 15.99940
353      H       1     MIN       H     353	 0.400000	 1.007940
354     Oh       1     MIN      Oh     354	-1.160000	 15.99940
355      H       1     MIN       H     355	 0.400000	 1.007940
356    Cah       1     MIN     Cah     356	 1.520000	 40.07800
357     Oh       1     MIN      Oh     357	-1.160000	 15.99940
358      H       1     MIN       H     358	 0.400000	 1.007940
359     Oh       1     MIN      Oh     359	-1.160000	 15.99940
360      H       1     MIN       H     360	 0.400000	 1.007940
361    Cah       1     MIN     Cah     361	 1.520000	 40.07800
362     Oh       1     MIN      Oh     362	-1.160000	 15.99940
363      H       1     MIN       H     363	 0.400000	 1.007940
364     Oh       1     MIN      Oh     364	-1.160000	 15.99940
365      H       1     MIN       H     365	 0.400000	 1.007940
366    Cah       1     MIN     Cah     366	 1.520000	 40.07800
367     Oh       1     MIN      Oh     367	-1.160000	 15.99940
368      H       1     MIN       H     368	 0.400000	 1.007940
369     Oh       1     MIN      Oh     369	-1.160000	 15.99940
370      H       1     MIN       H     370	 0.400000	 1.007940
371    Cah       1     MIN     Cah     371	 1.520000	 40.07800
372     Oh       1     MIN      Oh     372	-1.160000	 15.99940
373      H       1     MIN       H     373	 0.400000	 1.007940
374     Oh       1     MIN      Oh     374	-1.160000	 15.99940
375      H       1     MIN       H     375	 0.400000	 1.007940
376    Cah       1     MIN     Cah     376	 1.520000	 40.07800
377     Oh       1     MIN      Oh     377	-1.160000	 15.99940
378      H       1     MIN       H     378	 0.400000	 1.007940
379     Oh       1     MIN      Oh     379	-1.160000	 15.99940
380      H       1     MIN       H     380	 0.400000	 1.007940
381    Cah       1     MIN     Cah     381	 1.520000	 40.07800
382     Oh       1     MIN      Oh     382	-1.160000	 15.99940
383      H       1     MIN       H     383	 0.400000	 1.007940
384     Oh       1     MIN      Oh     384	-1.160000	 15.99940
385      H       1     MIN       H     385	 0.400000	 1.007940
386    Cah       1     MIN     Cah     386	 1.520000	 40.07800
387     Oh       1     MIN      Oh     387	-1.160000	 15.99940
388      H       1     MIN       H     388	 0.400000	 1.007940
389     Oh       1     MIN      Oh     389	-1.160000	 15.99940
390      H       1     MIN       H     390	 0.400000	 1.007940
391    Cah       1     MIN     Cah     391	 1.520000	 40.07800
392     Oh       1     MIN      Oh     392	-1.160000	 15.99940
393      H       1     MIN       H     393	 0.400000	 1.007940
394     Oh       1     MIN      Oh     394	-1.160000	 15.99940
395      H       1     MIN       H     395	 0.400000	 1.007940
396    Cah       1     MIN     Cah     396	 1.520000	 40.07800
397     Oh       1     MIN      Oh     397	-1.160000	 15.99940
398      H       1     MIN       H     398	 0.400000	 1.007940
399     Oh       1     MIN      Oh     399	-1.160000	 15.99940
400      H       1     MIN       H     400	 0.400000	 1.007940
401    Cah       1     MIN     Cah     401	 1.520000	 40.07800
402     Oh       1     MIN      Oh     402	-1.160000	 15.99940
403      H       1     MIN       H     403	 0.400000	 1.007940
404     Oh       1     MIN      Oh     404	-1.160000	 15.99940
405      H       1     MIN       H     405	 0.400000	 1.007940
406    Cah       1     MIN     Cah     406	 1.520000	 40.07800
407     Oh       1     MIN      Oh     407	-1.160000	 15.99940
408      H       1     MIN       H     408	 0.400000	 1.007940
409     Oh       1     MIN      Oh     409	-1.160000	 15.99940
410      H       1     MIN       H     410	 0.400000	 1.007940
411    Cah       1     MIN     Cah     411	 1.520000	 40.07800
412     Oh       1     MIN      Oh     412	-1.160000	 15.99940
413      H       1     MIN       H     413	 0.400000	 1.007940
414     Oh       1     MIN      Oh     414	-1.160000	 15.99940
415      H       1     MIN       H     415	 0.400000	 1.007940
416    Cah       1     MIN     Cah     416	 1.520000	 40.07800
417     Oh       1     MIN      Oh     417	-1.160000	 15.99940
418      H       1     MIN       H     418	 0.400000	 1.007940
419     Oh       1     MIN      Oh     419	-1.160000	 15.99940
420      H       1     MIN       H     420	 0.400000	 1.007940
421    Cah       1     MIN     Cah     421	 1.520000	 40.07800
422     Oh       1     MIN      Oh     422	-1.160000	 15.99940
423      H       1     MIN       H     423	 0.400000	 1.007940
424     Oh       1     MIN      Oh     424	-1.160000	 15.99940
425      H       1     MIN       H     425	 0.400000	 1.007940
426    Cah       1     MIN     Cah     426	 1.520000	 40.07800
427     Oh       1     MIN      Oh     427	-1.160000	 15.99940
428      H       1     MIN       H     428	 0.400000	 1.007940
429     Oh       1     MIN      Oh     429	-1.160000	 15.99940
430      H       1     MIN       H     430	 0.400000	 1.007940
431    Cah       1     MIN     Cah     431	 1.520000	 40.07800
432     Oh       1     MIN      Oh     432	-1.160000	 15.99940
433      H       1     MIN       H     433	 0.400000	 1.007940
434     Oh       1     MIN      Oh     434	-1.160000	 15.99940
435      H       1     MIN       H     435	 0.400000	 1.007940
436    Cah       1     MIN     Cah     436	 1.520000	 40.07800
437     Oh       1     MIN      Oh     437	-1.160000	 15.99940
438      H       1     MIN       H     438	 0.400000	 1.007940
439     Oh       1     MIN      Oh     439	-1.160000	 15.99940
440      H       1     MIN       H     440	 0.400000	 1.007940
441    Cah       1     MIN     Cah     441	 1.520000	 40.07800
442     Oh       1     MIN      Oh     442	-1.160000	 15.99940
443      H       1     MIN       H     443	 0.400000	 1.007940
444     Oh       1     MIN      Oh     444	-1.160000	 15.99940
445      H       1     MIN       H     445	 0.400000	 1.007940
446    Cah       1     MIN     Cah     446	 1.520000	 40.07800
447     Oh       1     MIN      Oh     447	-1.160000	 15.99940
448      H       1     MIN       H     448	 0.400000	 1.007940
449     Oh       1     MIN      Oh     449	-1.160000	 15.99940
450      H       1     MIN       H     450	 0.400000	 1.007940
451    Cah       1     MIN     Cah     451	 1.520000	 40.07800
452     Oh       1     MIN      Oh     452	-1.160000	 15.99940
453      H       1     MIN       H     453	 0.400000	 1.007940
454     Oh       1     MIN      Oh     454	-1.160000	 15.99940
455      H       1     MIN       H     455	 0.400000	 1.007940
456    Cah       1     MIN     Cah     456	 1.520000	 40.07800
457     Oh       1     MIN      Oh     457	-1.160000	 15.99940
458      H       1     MIN       H     458	 0.400000	 1.007940
459     Oh       1     MIN      Oh     459	-1.160000	 15.99940
460      H       1     MIN       H     460	 0.400000	 1.007940
461    Cah       1     MIN     Cah     461	 1.520000	 40.07800
462     Oh       1     MIN      Oh     462	-1.160000	 15.99940
463      H       1     MIN       H     463	 0.400000	 1.007940
464     Oh       1     MIN      Oh     464	-1.160000	 15.99940
465      H       1     MIN       H     465	 0.400000	 1.007940
466    Cah       1     MIN     Cah     466	 1.520000	 40.07800
467     Oh       1     MIN      Oh     467	-1.160000	 15.99940
468      H       1     MIN       H     468	 0.400000	 1.007940
469     Oh       1     MIN      Oh     469	-1.160000	 15.99940
470      H       1     MIN       H     470	 0.400000	 1.007940
471    Cah       1     MIN     Cah     471	 1.520000	 40.07800
472     Oh       1     MIN      Oh     472	-1.160000	 15.99940
473      H       1     MIN       H     473	 0.400000	 1.007940
474     Oh       1     MIN      Oh     474	-1.160000	 15.99940
475      H       1     MIN       H     475	 0.400000	 1.007940
476    Cah       1     MIN     Cah     476	 1.520000	 40.07800
477     Oh       1     MIN      Oh     477	-1.160000	 15.99940
478      H       1     MIN       H     478	 0.400000	 1.007940
479     Oh       1     MIN      Oh     479	-1.160000	 15.99940
480      H       1     MIN       H     480	 0.400000	 1.007940
481    Cah       1     MIN     Cah     481	 1.520000	 40.07800
482     Oh       1     MIN      Oh     482	-1.160000	 15.99940
483      H       1     MIN       H     483	 0.400000	 1.007940
484     Oh       1     MIN      Oh     484	-1.160000	 15.99940
485      H       1     MIN       H     485	 0.400000	 1.007940
486    Cah       1     MIN     Cah     486	 1.520000	 40.07800
487     Oh       1     MIN      Oh     487	-1.160000	 15.99940
488      H       1     MIN       H     488	 0.400000	 1.007940
489     Oh       1     MIN      Oh     489	-1.160000	 15.99940
490      H       1     MIN       H     490	 0.400000	 1.007940
491    Cah       1     MIN     Cah     491	 1.520000	 40.07800
492     Oh       1     MIN      Oh     492	-1.160000	 15.99940
493      H       1     MIN       H     493	 0.400000	 1.007940
494     Oh       1     MIN      Oh     494	-1.160000	 15.99940
495      H       1     MIN       H     495	 0.400000	 1.007940
496    Cah       1     MIN     Cah     496	 1.520000	 40.07800
497     Oh       1     MIN      Oh     497	-1.160000	 15.99940
498      H       1     MIN       H     498	 0.400000	 1.007940
499     Oh       1     MIN      Oh     499	-1.160000	 15.99940
500      H       1     MIN       H     500	 0.400000	 1.007940
501    Cah       1     MIN     Cah     501	 1.520000	 40.07800
502     Oh       1     MIN      Oh     502	-1.160000	 15.99940
503      H       1     MIN       H     503	 0.400000	 1.007940
504     Oh       1     MIN      Oh     504	-1.160000	 15.99940
505      H       1     MIN       H     505	 0.400000	 1.007940
506    Cah       1     MIN     Cah     506	 1.520000	 40.07800
507     Oh       1     MIN      Oh     507	-1.160000	 15.99940
508      H       1     MIN       H     508	 0.400000	 1.007940
509     Oh       1     MIN      Oh     509	-1.160000	 15.99940
510      H       1     MIN       H     510	 0.400000	 1.007940
511    Cah       1     MIN     Cah     511	 1.520000	 40.07800
512     Oh       1     MIN      Oh     512	-1.160000	 15.99940
513      H       1     MIN       H     513	 0.400000	 1.007940
514     Oh       1     MIN      Oh     514	-1.160000	 15.99940
515      H       1     MIN       H     515	 0.400000	 1.007940
516    Cah       1     MIN     Cah     516	 1.520000	 40.07800
517     Oh       1     MIN      Oh     517	-1.160000	 15.99940
518      H       1     MIN       H     518	 0.400000	 1.007940
519     Oh       1     MIN      Oh     519	-1.160000	 15.99940
520      H       1     MIN       H     520	 0.400000	 1.007940
521    Cah       1     MIN     Cah     521	 1.520000	 40.07800
522     Oh       1     MIN      Oh     522	-1.160000	 15.99940
523      H       1     MIN       H     523	 0.400000	 1.007940
524     Oh       1     MIN      Oh     524	-1.160000	 15.99940
525      H       1     MIN       H     525	 0.400000	 1.007940
526    Cah       1     MIN     Cah     526	 1.520000	 40.07800
527     Oh       1     MIN      Oh     527	-1.160000	 15.99940
528      H       1     MIN       H     528	 0.400000	 1.007940
529     Oh       1     MIN      Oh     529	-1.160000	 15.99940
530      H       1     MIN       H     530	 0.400000	 1.007940
531    Cah       1     MIN     Cah     531	 1.520000	 40.07800
532     Oh       1     MIN      Oh     532	-1.160000	 15.99940
533      H       1     MIN       H     533	 0.400000	 1.007940
534     Oh       1     MIN      Oh     534	-1.160000	 15.99940
535      H       1     MIN       H     535	 0.400000	 1.007940
536    Cah       1     MIN     Cah     536	 1.520000	 40.07800
537     Oh       1     MIN      Oh     537	-1.160000	 15.99940
538      H       1     MIN       H     538	 0.400000	 1.007940
539     Oh       1     MIN      Oh     539	-1.160000	 15.99940
540      H       1     MIN       H     540	 0.400000	 1.007940
541    Cah       1     MIN     Cah     541	 1.520000	 40.07800
542     Oh       1     MIN      Oh     542	-1.160000	 15.99940
543      H       1     MIN       H     543	 0.400000	 1.007940
544     Oh       1     MIN      Oh     544	-1.160000	 15.99940
545      H       1     MIN       H     545	 0.400000	 1.007940
546    Cah       1     MIN     Cah     546	 1.520000	 40.07800
547     Oh       1     MIN      Oh     547	-1.160000	 15.99940
548      H       1     MIN       H     548	 0.400000	 1.007940
549     Oh       1     MIN      Oh     549	-1.160000	 15.99940
550      H       1     MIN       H     550	 0.400000	 1.007940
551    Cah       1     MIN     Cah     551	 1.520000	 40.07800
552     Oh       1     MIN      Oh     552	-1.160000	 15.99940
553      H       1     MIN       H     553	 0.400000	 1.007940
554     Oh       1     MIN      Oh     554	-1.160000	 15.99940
555      H       1     MIN       H     555	 0.400000	 1.007940
556    Cah       1     MIN     Cah     556	 1.520000	 40.07800
557     Oh       1     MIN      Oh     557	-1.160000	 15.99940
558      H       1     MIN       H     558	 0.400000	 1.007940
559     Oh       1     MIN      Oh     559	-1.160000	 15.99940
560      H       1     MIN       H     560	 0.400000	 1.007940
561    Cah       1     MIN     Cah     561	 1.520000	 40.07800
562     Oh       1     MIN      Oh     562	-1.160000	 15.99940
563      H       1     MIN       H     563	 0.400000	 1.007940
564     Oh       1     MIN      Oh     564	-1.160000	 15.99940
565      H       1     MIN       H     565	 0.400000	 1.007940
566    Cah       1     MIN     Cah     566	 1.520000	 40.07800
567     Oh       1     MIN      Oh     567	-1.160000	 15.99940
568      H       1     MIN       H     568	 0.400000	 1.007940
569     Oh       1     MIN      Oh     569	-1.160000	 15.99940
570      H       1     MIN       H     570	 0.400000	 1.007940
571    Cah       1     MIN     Cah     571	 1.520000	 40.07800
572     Oh       1     MIN      Oh     572	-1.160000	 15.99940
573      H       1     MIN       H     573	 0.400000	 1.007940
574     Oh       1     MIN      Oh     574	-1.160000	 15.99940
575      H       1     MIN       H     575	 0.400000	 1.007940
576    Cah       1     MIN     Cah     576	 1.520000	 40.07800
577     Oh       1     MIN      Oh     577	-1.160000	 15.99940
578      H       1     MIN       H     578	 0.400000	 1.007940
579     Oh       1     MIN      Oh     579	-1.160000	 15.99940
580      H       1     MIN       H     580	 0.400000	 1.007940
581    Cah       1     MIN     Cah     581	 1.520000	 40.07800
582     Oh       1     MIN      Oh     582	-1.160000	 15.99940
583      H       1     MIN       H     583	 0.400000	 1.007940
584     Oh       1     MIN      Oh     584	-1.160000	 15.99940
585      H       1     MIN       H     585	 0.400000	 1.007940
586    Cah       1     MIN     Cah     586	 1.520000	 40.07800
587     Oh       1     MIN      Oh     587	-1.160000	 15.99940
588      H       1     MIN       H     588	 0.400000	 1.007940
589     Oh       1     MIN      Oh     589	-1.160000	 15.99940
590      H       1     MIN       H     590	 0.400000	 1.007940
591    Cah       1     MIN     Cah     591	 1.520000	 40.07800
592     Oh       1     MIN      Oh     592	-1.160000	 15.99940
593      H       1     MIN       H     593	 0.400000	 1.007940
594     Oh       1     MIN      Oh     594	-1.160000	 15.99940
595      H       1     MIN       H     595	 0.400000	 1.007940
596    Cah       1     MIN     Cah     596	 1.520000	 40.07800
597     Oh       1     MIN      Oh     597	-1.160000	 15.99940
598      H       1     MIN       H     598	 0.400000	 1.007940
599     Oh       1     MIN      Oh     599	-1.160000	 15.99940
600      H       1     MIN       H     600	 0.400000	 1.007940
601    Cah       1     MIN     Cah     601	 1.520000	 40.07800
602     Oh       1     MIN      Oh     602	-1.160000	 15.99940
603      H       1     MIN       H     603	 0.400000	 1.007940
604     Oh       1     MIN      Oh     604	-1.160000	 15.99940
605      H       1     MIN       H     605	 0.400000	 1.007940
606    Cah       1     MIN     Cah     606	 1.520000	 40.07800
607     Oh       1     MIN      Oh     607	-1.160000	 15.99940
608      H       1     MIN       H     608	 0.400000	 1.007940
609     Oh       1     MIN      Oh     609	-1.160000	 15.99940
610      H       1     MIN       H     610	 0.400000	 1.007940
611    Cah       1     MIN     Cah     611	 1.520000	 40.07800
612     Oh       1     MIN      Oh     612	-1.160000	 15.99940
613      H       1     MIN       H     613	 0.400000	 1.007940
614     Oh       1     MIN      Oh     614	-1.160000	 15.99940
615      H       1     MIN       H     615	 0.400000	 1.007940
616    Cah       1     MIN     Cah     616	 1.520000	 40.07800
617     Oh       1     MIN      Oh     617	-1.160000	 15.99940
618      H       1     MIN       H     618	 0.400000	 1.007940
619     Oh       1     MIN      Oh     619	-1.160000	 15.99940
620      H       1     MIN       H     620	 0.400000	 1.007940
621    Cah       1     MIN     Cah     621	 1.520000	 40.07800
622     Oh       1     MIN      Oh     622	-1.160000	 15.99940
623      H       1     MIN       H     623	 0.400000	 1.007940
624     Oh       1     MIN      Oh     624	-1.160000	 15.99940
625      H       1     MIN       H     625	 0.400000	 1.007940
626    Cah       1     MIN     Cah     626	 1.520000	 40.07800
627     Oh       1     MIN      Oh     627	-1.160000	 15.99940
628      H       1     MIN       H     628	 0.400000	 1.007940
629     Oh       1     MIN      Oh     629	-1.160000	 15.99940
630      H       1     MIN       H     630	 0.400000	 1.007940
631    Cah       1     MIN     Cah     631	 1.520000	 40.07800
632     Oh       1     MIN      Oh     632	-1.160000	 15.99940
633      H       1     MIN       H     633	 0.400000	 1.007940
634     Oh       1     MIN      Oh     634	-1.160000	 15.99940
635      H       1     MIN       H     635	 0.400000	 1.007940
636    Cah       1     MIN     Cah     636	 1.520000	 40.07800
637     Oh       1     MIN      Oh     637	-1.160000	 15.99940
638      H       1     MIN       H     638	 0.400000	 1.007940
639     Oh       1     MIN      Oh     639	-1.160000	 15.99940
640      H       1     MIN       H     640	 0.400000	 1.007940
641    Cah       1     MIN     Cah     641	 1.520000	 40.07800
642     Oh       1     MIN      Oh     642	-1.160000	 15.99940
643      H       1     MIN       H     643	 0.400000	 1.007940
644     Oh       1     MIN      Oh     644	-1.160000	 15.99940
645      H       1     MIN       H     645	 0.400000	 1.007940
646    Cah       1     MIN     Cah     646	 1.520000	 40.07800
647     Oh       1     MIN      Oh     647	-1.160000	 15.99940
648      H       1     MIN       H     648	 0.400000	 1.007940
649     Oh       1     MIN      Oh     649	-1.160000	 15.99940
650      H       1     MIN       H     650	 0.400000	 1.007940
651    Cah       1     MIN     Cah     651	 1.520000	 40.07800
652     Oh       1     MIN      Oh     652	-1.160000	 15.99940
653      H       1     MIN       H     653	 0.400000	 1.007940
654     Oh       1     MIN      Oh     654	-1.160000	 15.99940
655      H       1     MIN       H     655	 0.400000	 1.007940
656    Cah       1     MIN     Cah     656	 1.520000	 40.07800
657     Oh       1     MIN      Oh     657	-1.160000	 15.99940
658      H       1     MIN       H     658	 0.400000	 1.007940
659     Oh       1     MIN      Oh     659	-1.160000	 15.99940
660      H       1     MIN       H     660	 0.400000	 1.007940
661    Cah       1     MIN     Cah     661	 1.520000	 40.07800
662     Oh       1     MIN      Oh     662	-1.160000	 15.99940
663      H       1     MIN       H     663	 0.400000	 1.007940
664     Oh       1     MIN      Oh     664	-1.160000	 15.99940
665      H       1     MIN       H     665	 0.400000	 1.007940
666    Cah       1     MIN     Cah     666	 1.520000	 40.07800
667     Oh       1     MIN      Oh     667	-1.160000	 15.99940
668      H       1     MIN       H     668	 0.400000	 1.007940
669     Oh       1     MIN      Oh     669	-1.160000	 15.99940
670      H       1     MIN       H     670	 0.400000	 1.007940
671    Cah       1     MIN     Cah     671	 1.520000	 40.07800
672     Oh       1     MIN      Oh     672	-1.160000	 15.99940
673      H       1     MIN       H     673	 0.400000	 1.007940
674     Oh       1     MIN      Oh     674	-1.160000	 15.99940
675      H       1     MIN       H     675	 0.400000	 1.007940
676    Cah       1     MIN     Cah     676	 1.520000	 40.07800
677     Oh       1     MIN      Oh     677	-1.160000	 15.99940
678      H       1     MIN       H     678	 0.400000	 1.007940
679     Oh       1     MIN      Oh     679	-1.160000	 15.99940
680      H       1     MIN       H     680	 0.400000	 1.007940
681    Cah       1     MIN     Cah     681	 1.520000	 40.07800
682     Oh       1     MIN      Oh     682	-1.160000	 15.99940
683      H       1     MIN       H     683	 0.400000	 1.007940
684     Oh       1     MIN      Oh     684	-1.160000	 15.99940
685      H       1     MIN       H     685	 0.400000	 1.007940
686    Cah       1     MIN     Cah     686	 1.520000	 40.07800
687     Oh       1     MIN      Oh     687	-1.160000	 15.99940
688      H       1     MIN       H     688	 0.400000	 1.007940
689     Oh       1     MIN      Oh     689	-1.160000	 15.99940
690      H       1     MIN       H     690	 0.400000	 1.007940
691    Cah       1     MIN     Cah     691	 1.520000	 40.07800
692     Oh       1     MIN      Oh     692	-1.160000	 15.99940
693      H       1     MIN       H     693	 0.400000	 1.007940
694     Oh       1     MIN      Oh     694	-1.160000	 15.99940
695      H       1     MIN       H     695	 0.400000	 1.007940
696    Cah       1     MIN     Cah     696	 1.520000	 40.07800
697     Oh       1     MIN      Oh     697	-1.160000	 15.99940
698      H       1     MIN       H     698	 0.400000	 1.007940
699     Oh       1     MIN      Oh     699	-1.160000	 15.99940
700      H       1     MIN       H     700	 0.400000	 1.007940
701    Cah       1     MIN     Cah     701	 1.520000	 40.07800
702     Oh       1     MIN      Oh     702	-1.160000	 15.99940
703      H       1     MIN       H     703	 0.400000	 1.007940
704     Oh       1     MIN      Oh     704	-1.160000	 15.99940
705      H       1     MIN       H     705	 0.400000	 1.007940
706    Cah       1     MIN     Cah     706	 1.520000	 40.07800
707     Oh       1     MIN      Oh     707	-1.160000	 15.99940
708      H       1     MIN       H     708	 0.400000	 1.007940
709     Oh       1     MIN      Oh     709	-1.160000	 15.99940
710      H       1     MIN       H     710	 0.400000	 1.007940
711    Cah       1     MIN     Cah     711	 1.520000	 40.07800
712     Oh       1     MIN      Oh     712	-1.160000	 15.99940
713      H       1     MIN       H     713	 0.400000	 1.007940
714     Oh       1     MIN      Oh     714	-1.160000	 15.99940
715      H       1     MIN       H     715	 0.400000	 1.007940
716    Cah       1     MIN     Cah     716	 1.520000	 40.07800
717     Oh       1     MIN      Oh     717	-1.160000	 15.99940
718      H       1     MIN       H     718	 0.400000	 1.007940
719     Oh       1     MIN      Oh     719	-1.160000	 15.99940
720      H       1     MIN       H     720	 0.400000	 1.007940
721    Cah       1     MIN     Cah     721	 1.520000	 40.07800
722     Oh       1     MIN      Oh     722	-1.160000	 15.99940
723      H       1     MIN       H     723	 0.400000	 1.007940
724     Oh       1     MIN      Oh     724	-1.160000	 15.99940
725      H       1     MIN       H     725	 0.400000	 1.007940
726    Cah       1     MIN     Cah     726	 1.520000	 40.07800
727     Oh       1     MIN      Oh     727	-1.160000	 15.99940
728      H       1     MIN       H     728	 0.400000	 1.007940
729     Oh       1     MIN      Oh     729	-1.160000	 15.99940
730      H       1     MIN       H     730	 0.400000	 1.007940
731    Cah       1     MIN     Cah     731	 1.520000	 40.07800
732     Oh       1     MIN      Oh     732	-1.160000	 15.99940
733      H       1     MIN       H     733	 0.400000	 1.007940
734     Oh       1     MIN      Oh     734	-1.160000	 15.99940
735      H       1     MIN       H     735	 0.400000	 1.007940
736    Cah       1     MIN     Cah     736	 1.520000	 40.07800
737     Oh       1     MIN      Oh     737	-1.160000	 15.99940
738      H       1     MIN       H     738	 0.400000	 1.007940
739     Oh       1     MIN      Oh     739	-1.160000	 15.99940
740      H       1     MIN       H     740	 0.400000	 1.007940
741    Cah       1     MIN     Cah     741	 1.520000	 40.07800
742     Oh       1     MIN      Oh     742	-1.160000	 15.99940
743      H       1     MIN       H     743	 0.400000	 1.007940
744     Oh       1     MIN      Oh     744	-1.160000	 15.99940
745      H       1     MIN       H     745	 0.400000	 1.007940
746    Cah       1     MIN     Cah     746	 1.520000	 40.07800
747     Oh       1     MIN      Oh     747	-1.160000	 15.99940
748      H       1     MIN       H     748	 0.400000	 1.007940
749     Oh       1     MIN      Oh     749	-1.160000	 15.99940
750      H       1     MIN       H     750	 0.400000	 1.007940
751    Cah       1     MIN     Cah     751	 1.520000	 40.07800
752     Oh       1     MIN      Oh     752	-1.160000	 15.99940
753      H       1     MIN       H     753	 0.400000	 1.007940
754     Oh       1     MIN      Oh     754	-1.160000	 15.99940
755      H       1     MIN       H     755	 0.400000	 1.007940
756    Cah       1     MIN     Cah     756	 1.520000	 40.07800
757     Oh       1     MIN      Oh     757	-1.160000	 15.99940
758      H       1     MIN       H     758	 0.400000	 1.007940
759     Oh       1     MIN      Oh     759	-1.160000	 15.99940
760      H       1     MIN       H     760	 0.400000	 1.007940
761    Cah       1     MIN     Cah     761	 1.520000	 40.07800
762     Oh       1     MIN      Oh     762	-1.160000	 15.99940
763      H       1     MIN       H     763	 0.400000	 1.007940
764     Oh       1     MIN      Oh     764	-1.160000	 15.99940
765      H       1     MIN       H     765	 0.400000	 1.007940
766    Cah       1     MIN     Cah     766	 1.520000	 40.07800
767     Oh       1     MIN      Oh     767	-1.160000	 15.99940
768      H       1     MIN       H     768	 0.400000	 1.007940
769     Oh       1     MIN      Oh     769	-1.160000	 15.99940
770      H       1     MIN       H     770	 0.400000	 1.007940
771    Cah       1     MIN     Cah     771	 1.520000	 40.07800
772     Oh       1     MIN      Oh     772	-1.160000	 15.99940
773      H       1     MIN       H     773	 0.400000	 1.007940
774     Oh       1     MIN      Oh     774	-1.160000	 15.99940
775      H       1     MIN       H     775	 0.400000	 1.007940
776    Cah       1     MIN     Cah     776	 1.520000	 40.07800
777     Oh       1     MIN      Oh     777	-1.160000	 15.99940
778      H       1     MIN       H     778	 0.400000	 1.007940
779     Oh       1     MIN      Oh     779	-1.160000	 15.99940
780      H       1     MIN       H     780	 0.400000	 1.007940
781    Cah       1     MIN     Cah     781	 1.520000	 40.07800
782     Oh       1     MIN      Oh     782	-1.160000	 15.99940
783      H       1     MIN       H     783	 0.400000	 1.007940
784     Oh       1     MIN      Oh     784	-1.160000	 15.99940
785      H       1     MIN       H     785	 0.400000	 1.007940
786    Cah       1     MIN     Cah     786	 1.520000	 40.07800
787     Oh       1     MIN      Oh     787	-1.160000	 15.99940
788      H       1     MIN       H     788	 0.400000	 1.007940
789     Oh       1     MIN      Oh     789	-1.160000	 15.99940
790      H       1     MIN       H     790	 0.400000	 1.007940
791    Cah       1     MIN     Cah     791	 1.520000	 40.07800
792     Oh       1     MIN      Oh     792	-1.160000	 15.99940
793      H       1     MIN       H     793	 0.400000	 1.007940
794     Oh       1     MIN      Oh     794	-1.160000	 15.99940
795      H       1     MIN       H     795	 0.400000	 1.007940
796    Cah       1     MIN     Cah     796	 1.520000	 40.07800
797     Oh       1     MIN      Oh     797	-1.160000	 15.99940
798      H       1     MIN       H     798	 0.400000	 1.007940
799     Oh       1     MIN      Oh     799	-1.160000	 15.99940
800      H       1     MIN       H     800	 0.400000	 1.007940
801    Cah       1     MIN     Cah     801	 1.520000	 40.07800
802     Oh       1     MIN      Oh     802	-1.160000	 15.99940
803      H       1     MIN       H     803	 0.400000	 1.007940
804     Oh       1     MIN      Oh     804	-1.160000	 15.99940
805      H       1     MIN       H     805	 0.400000	 1.007940
806    Cah       1     MIN     Cah     806	 1.520000	 40.07800
807     Oh       1     MIN      Oh     807	-1.160000	 15.99940
808      H       1     MIN       H     808	 0.400000	 1.007940
809     Oh       1     MIN      Oh     809	-1.160000	 15.99940
810      H       1     MIN       H     810	 0.400000	 1.007940
811    Cah       1     MIN     Cah     811	 1.520000	 40.07800
812     Oh       1     MIN      Oh     812	-1.160000	 15.99940
813      H       1     MIN       H     813	 0.400000	 1.007940
814     Oh       1     MIN      Oh     814	-1.160000	 15.99940
815      H       1     MIN       H     815	 0.400000	 1.007940
816    Cah       1     MIN     Cah     816	 1.520000	 40.07800
817     Oh       1     MIN      Oh     817	-1.160000	 15.99940
818      H       1     MIN       H     818	 0.400000	 1.007940
819     Oh       1     MIN      Oh     819	-1.160000	 15.99940
820      H       1     MIN       H     820	 0.400000	 1.007940
821    Cah       1     MIN     Cah     821	 1.520000	 40.07800
822     Oh       1     MIN      Oh     822	-1.160000	 15.99940
823      H       1     MIN       H     823	 0.400000	 1.007940
824     Oh       1     MIN      Oh     824	-1.160000	 15.99940
825      H       1     MIN       H     825	 0.400000	 1.007940
826    Cah       1     MIN     Cah     826	 1.520000	 40.07800
827     Oh       1     MIN      Oh     827	-1.160000	 15.99940
828      H       1     MIN       H     828	 0.400000	 1.007940
829     Oh       1     MIN      Oh     829	-1.160000	 15.99940
830      H       1     MIN       H     830	 0.400000	 1.007940
831    Cah       1     MIN     Cah     831	 1.520000	 40.07800
832     Oh       1     MIN      Oh     832	-1.160000	 15.99940
833      H       1     MIN       H     833	 0.400000	 1.007940
834     Oh       1     MIN      Oh     834	-1.160000	 15.99940
835      H       1     MIN       H     835	 0.400000	 1.007940
836    Cah       1     MIN     Cah     836	 1.520000	 40.07800
837     Oh       1     MIN      Oh     837	-1.160000	 15.99940
838      H       1     MIN       H     838	 0.400000	 1.007940
839     Oh       1     MIN      Oh     839	-1.160000	 15.99940
840      H       1     MIN       H     840	 0.400000	 1.007940
841    Cah       1     MIN     Cah     841	 1.520000	 40.07800
842     Oh       1     MIN      Oh     842	-1.160000	 15.99940
843      H       1     MIN       H     843	 0.400000	 1.007940
844     Oh       1     MIN      Oh     844	-1.160000	 15.99940
845      H       1     MIN       H     845	 0.400000	 1.007940
846    Cah       1     MIN     Cah     846	 1.520000	 40.07800
847     Oh       1     MIN      Oh     847	-1.160000	 15.99940
848      H       1     MIN       H     848	 0.400000	 1.007940
849     Oh       1     MIN      Oh     849	-1.160000	 15.99940
850      H       1     MIN       H     850	 0.400000	 1.007940
851    Cah       1     MIN     Cah     851	 1.520000	 40.07800
852     Oh       1     MIN      Oh     852	-1.160000	 15.99940
853      H       1     MIN       H     853	 0.400000	 1.007940
854     Oh       1     MIN      Oh     854	-1.160000	 15.99940
855      H       1     MIN       H     855	 0.400000	 1.007940
856    Cah       1     MIN     Cah     856	 1.520000	 40.07800
857     Oh       1     MIN      Oh     857	-1.160000	 15.99940
858      H       1     MIN       H     858	 0.400000	 1.007940
859     Oh       1     MIN      Oh     859	-1.160000	 15.99940
860      H       1     MIN       H     860	 0.400000	 1.007940
861    Cah       1     MIN     Cah     861	 1.520000	 40.07800
862     Oh       1     MIN      Oh     862	-1.160000	 15.99940
863      H       1     MIN       H     863	 0.400000	 1.007940
864     Oh       1     MIN      Oh     864	-1.160000	 15.99940
865      H       1     MIN       H     865	 0.400000	 1.007940
866    Cah       1     MIN     Cah     866	 1.520000	 40.07800
867     Oh       1     MIN      Oh     867	-1.160000	 15.99940
868      H       1     MIN       H     868	 0.400000	 1.007940
869     Oh       1     MIN      Oh     869	-1.160000	 15.99940
870      H       1     MIN       H     870	 0.400000	 1.007940
871    Cah       1     MIN     Cah     871	 1.520000	 40.07800
872     Oh       1     MIN      Oh     872	-1.160000	 15.99940
873      H       1     MIN       H     873	 0.400000	 1.007940
874     Oh       1     MIN      Oh     874	-1.160000	 15.99940
875      H       1     MIN       H     875	 0.400000	 1.007940
876    Cah       1     MIN     Cah     876	 1.520000	 40.07800
877     Oh       1     MIN      Oh     877	-1.160000	 15.99940
878      H       1     MIN       H     878	 0.400000	 1.007940
879     Oh       1     MIN      Oh     879	-1.160000	 15.99940
880      H       1     MIN       H     880	 0.400000	 1.007940
881    Cah       1     MIN     Cah     881	 1.520000	 40.07800
882     Oh       1     MIN      Oh     882	-1.160000	 15.99940
883      H       1     MIN       H     883	 0.400000	 1.007940
884     Oh       1     MIN      Oh     884	-1.160000	 15.99940
885      H       1     MIN       H     885	 0.400000	 1.007940
886    Cah       1     MIN     Cah     886	 1.520000	 40.07800
887     Oh       1     MIN      Oh     887	-1.160000	 15.99940
888      H       1     MIN       H     888	 0.400000	 1.007940
889     Oh       1     MIN      Oh     889	-1.160000	 15.99940
890      H       1     MIN       H     890	 0.400000	 1.007940
891    Cah       1     MIN     Cah     891	 1.520000	 40.07800
892     Oh       1     MIN      Oh     892	-1.160000	 15.99940
893      H       1     MIN       H     893	 0.400000	 1.007940
894     Oh       1     MIN      Oh     894	-1.160000	 15.99940
895      H       1     MIN       H     895	 0.400000	 1.007940
896    Cah       1     MIN     Cah     896	 1.520000	 40.07800
897     Oh       1     MIN      Oh     897	-1.160000	 15.99940
898      H       1     MIN       H     898	 0.400000	 1.007940
899     Oh       1     MIN      Oh     899	-1.160000	 15.99940
900      H       1     MIN       H     900	 0.400000	 1.007940
901    Cah       1     MIN     Cah     901	 1.520000	 40.07800
902     Oh       1     MIN      Oh     902	-1.160000	 15.99940
903      H       1     MIN       H     903	 0.400000	 1.007940
904     Oh       1     MIN      Oh     904	-1.160000	 15.99940
905      H       1     MIN       H     905	 0.400000	 1.007940
906    Cah       1     MIN     Cah     906	 1.520000	 40.07800
907     Oh       1     MIN      Oh     907	-1.160000	 15.99940
908      H       1     MIN       H     908	 0.400000	 1.007940
909     Oh       1     MIN      Oh     909	-1.160000	 15.99940
910      H       1     MIN       H     910	 0.400000	 1.007940
911    Cah       1     MIN     Cah     911	 1.520000	 40.07800
912     Oh       1     MIN      Oh     912	-1.160000	 15.99940
913      H       1     MIN       H     913	 0.400000	 1.007940
914     Oh       1     MIN      Oh     914	-1.160000	 15.99940
915      H       1     MIN       H     915	 0.400000	 1.007940
916    Cah       1     MIN     Cah     916	 1.520000	 40.07800
917     Oh       1     MIN      Oh     917	-1.160000	 15.99940
918      H       1     MIN       H     918	 0.400000	 1.007940
919     Oh       1     MIN      Oh     919	-1.160000	 15.99940
920      H       1     MIN       H     920	 0.400000	 1.007940
921    Cah       1     MIN     Cah     921	 1.520000	 40.07800
922     Oh       1     MIN      Oh     922	-1.160000	 15.99940
923      H       1     MIN       H     923	 0.400000	 1.007940
924     Oh       1     MIN      Oh     924	-1.160000	 15.99940
925      H       1     MIN       H     925	 0.400000	 1.007940
926    Cah       1     MIN     Cah     926	 1.520000	 40.07800
927     Oh       1     MIN      Oh     927	-1.160000	 15.99940
928      H       1     MIN       H     928	 0.400000	 1.007940
929     Oh       1     MIN      Oh     929	-1.160000	 15.99940
930      H       1     MIN       H     930	 0.400000	 1.007940
931    Cah       1     MIN     Cah     931	 1.520000	 40.07800
932     Oh       1     MIN      Oh     932	-1.160000	 15.99940
933      H       1     MIN       H     933	 0.400000	 1.007940
934     Oh       1     MIN      Oh     934	-1.160000	 15.99940
935      H       1     MIN       H     935	 0.400000	 1.007940
936    Cah       1     MIN     Cah     936	 1.520000	 40.07800
937     Oh       1     MIN      Oh     937	-1.160000	 15.99940
938      H       1     MIN       H     938	 0.400000	 1.007940
939     Oh       1     MIN      Oh     939	-1.160000	 15.99940
940      H       1     MIN       H     940	 0.400000	 1.007940
941    Cah       1     MIN     Cah     941	 1.520000	 40.07800
942     Oh       1     MIN      Oh     942	-1.160000	 15.99940
943      H       1     MIN       H     943	 0.400000	 1.007940
944     Oh       1     MIN      Oh     944	-1.160000	 15.99940
945      H       1     MIN       H     945	 0.400000	 1.007940
946    Cah       1     MIN     Cah     946	 1.520000	 40.07800
947     Oh       1     MIN      Oh     947	-1.160000	 15.99940
948      H       1     MIN       H     948	 0.400000	 1.007940
949     Oh       1     MIN      Oh     949	-1.160000	 15.99940
950      H       1     MIN       H     950	 0.400000	 1.007940
951    Cah       1     MIN     Cah     951	 1.520000	 40.07800
952     Oh       1     MIN      Oh     952	-1.160000	 15.99940
953      H       1     MIN       H     953	 0.400000	 1.007940
954     Oh       1     MIN      Oh     954	-1.160000	 15.99940
955      H       1     MIN       H     955	 0.400000	 1.007940
956    Cah       1     MIN     Cah     956	 1.520000	 40.07800
957     Oh       1     MIN      Oh     957	-1.160000	 15.99940
958      H       1     MIN       H     958	 0.400000	 1.007940
959     Oh       1     MIN      Oh     959	-1.160000	 15.99940
960      H       1     MIN       H     960	 0.400000	 1.007940
961    Cah       1     MIN     Cah     961	 1.520000	 40.07800
962     Oh       1     MIN      Oh     962	-1.160000	 15.99940
963      H       1     MIN       H     963	 0.400000	 1.007940
964     Oh       1     MIN      Oh     964	-1.160000	 15.99940
965      H       1     MIN       H     965	 0.400000	 1.007940
966    Cah       1     MIN     Cah     966	 1.520000	 40.07800
967     Oh       1     MIN      Oh     967	-1.160000	 15.99940
968      H       1     MIN       H     968	 0.400000	 1.007940
969     Oh       1     MIN      Oh     969	-1.160000	 15.99940
970      H       1     MIN       H     970	 0.400000	 1.007940
971    Cah       1     MIN     Cah     971	 1.520000	 40.07800
972     Oh       1     MIN      Oh     972	-1.160000	 15.99940
973      H       1     MIN       H     973	 0.400000	 1.007940
974     Oh       1     MIN      Oh     974	-1.160000	 15.99940
975      H       1     MIN       H     975	 0.400000	 1.007940
976    Cah       1     MIN     Cah     976	 1.520000	 40.07800
977     Oh       1     MIN      Oh     977	-1.160000	 15.99940
978      H       1     MIN       H     978	 0.400000	 1.007940
979     Oh       1     MIN      Oh     979	-1.160000	 15.99940
980      H       1     MIN       H     980	 0.400000	 1.007940
981    Cah       1     MIN     Cah     981	 1.520000	 40.07800
982     Oh       1     MIN      Oh     982	-1.160000	 15.99940
983      H       1     MIN       H     983	 0.400000	 1.007940
984     Oh       1     MIN      Oh     984	-1.160000	 15.99940
985      H       1     MIN       H     985	 0.400000	 1.007940
986    Cah       1     MIN     Cah     986	 1.520000	 40.07800
987     Oh       1     MIN      Oh     987	-1.160000	 15.99940
988      H       1     MIN       H     988	 0.400000	 1.007940
989     Oh       1     MIN      Oh     989	-1.160000	 15.99940
990      H       1     MIN       H     990	 0.400000	 1.007940
991    Cah       1     MIN     Cah     991	 1.520000	 40.07800
992     Oh       1     MIN      Oh     992	-1.160000	 15.99940
993      H       1     MIN       H     993	 0.400000	 1.007940
994     Oh       1     MIN      Oh     994	-1.160000	 15.99940
995      H       1     MIN       H     995	 0.400000	 1.007940
996    Cah       1     MIN     Cah     996	 1.520000	 40.07800
997     Oh       1     MIN      Oh     997	-1.160000	 15.99940
998      H       1     MIN       H     998	 0.400000	 1.007940
999     Oh       1     MIN      Oh     999	-1.160000	 15.99940
1000     H       1     MIN       H    1000	 0.400000	 1.007940
1001   Cah       1     MIN     Cah    1001	 1.520000	 40.07800
1002    Oh       1     MIN      Oh    1002	-1.160000	 15.99940
1003     H       1     MIN       H    1003	 0.400000	 1.007940
1004    Oh       1     MIN      Oh    1004	-1.160000	 15.99940
1005     H       1     MIN       H    1005	 0.400000	 1.007940
1006   Cah       1     MIN     Cah    1006	 1.520000	 40.07800
1007    Oh       1     MIN      Oh    1007	-1.160000	 15.99940
1008     H       1     MIN       H    1008	 0.400000	 1.007940
1009    Oh       1     MIN      Oh    1009	-1.160000	 15.99940
1010     H       1     MIN       H    1010	 0.400000	 1.007940
1011   Cah       1     MIN     Cah    1011	 1.520000	 40.07800
1012    Oh       1     MIN      Oh    1012	-1.160000	 15.99940
1013     H       1     MIN       H    1013	 0.400000	 1.007940
1014    Oh       1     MIN      Oh    1014	-1.160000	 15.99940
1015     H       1     MIN       H    1015	 0.400000	 1.007940
1016   Cah       1     MIN     Cah    1016	 1.520000	 40.07800
1017    Oh       1     MIN      Oh    1017	-1.160000	 15.99940
1018     H       1     MIN       H    1018	 0.400000	 1.007940
1019    Oh       1     MIN      Oh    1019	-1.160000	 15.99940
1020     H       1     MIN       H    1020	 0.400000	 1.007940
1021   Cah       1     MIN     Cah    1021	 1.520000	 40.07800
1022    Oh       1     MIN      Oh    1022	-1.160000	 15.99940
1023     H       1     MIN       H    1023	 0.400000	 1.007940
1024    Oh       1     MIN      Oh    1024	-1.160000	 15.99940
1025     H       1     MIN       H    1025	 0.400000	 1.007940
1026   Cah       1     MIN     Cah    1026	 1.520000	 40.07800
1027    Oh       1     MIN      Oh    1027	-1.160000	 15.99940
1028     H       1     MIN       H    1028	 0.400000	 1.007940
1029    Oh       1     MIN      Oh    1029	-1.160000	 15.99940
1030     H       1     MIN       H    1030	 0.400000	 1.007940
1031   Cah       1     MIN     Cah    1031	 1.520000	 40.07800
1032    Oh       1     MIN      Oh    1032	-1.160000	 15.99940
1033     H       1     MIN       H    1033	 0.400000	 1.007940
1034    Oh       1     MIN      Oh    1034	-1.160000	 15.99940
1035     H       1     MIN       H    1035	 0.400000	 1.007940
1036   Cah       1     MIN     Cah    1036	 1.520000	 40.07800
1037    Oh       1     MIN      Oh    1037	-1.160000	 15.99940
1038     H       1     MIN       H    1038	 0.400000	 1.007940
1039    Oh       1     MIN      Oh    1039	-1.160000	 15.99940
1040     H       1     MIN       H    1040	 0.400000	 1.007940
1041   Cah       1     MIN     Cah    1041	 1.520000	 40.07800
1042    Oh       1     MIN      Oh    1042	-1.160000	 15.99940
1043     H       1     MIN       H    1043	 0.400000	 1.007940
1044    Oh       1     MIN      Oh    1044	-1.160000	 15.99940
1045     H       1     MIN       H    1045	 0.400000	 1.007940
1046   Cah       1     MIN     Cah    1046	 1.520000	 40.07800
1047    Oh       1     MIN      Oh    1047	-1.160000	 15.99940
1048     H       1     MIN       H    1048	 0.400000	 1.007940
1049    Oh       1     MIN      Oh    1049	-1.160000	 15.99940
1050     H       1     MIN       H    1050	 0.400000	 1.007940
1051   Cah       1     MIN     Cah    1051	 1.520000	 40.07800
1052    Oh       1     MIN      Oh    1052	-1.160000	 15.99940
1053     H       1     MIN       H    1053	 0.400000	 1.007940
1054    Oh       1     MIN      Oh    1054	-1.160000	 15.99940
1055     H       1     MIN       H    1055	 0.400000	 1.007940
1056   Cah       1     MIN     Cah    1056	 1.520000	 40.07800
1057    Oh       1     MIN      Oh    1057	-1.160000	 15.99940
1058     H       1     MIN       H    1058	 0.400000	 1.007940
1059    Oh       1     MIN      Oh    1059	-1.160000	 15.99940
1060     H       1     MIN       H    1060	 0.400000	 1.007940
1061   Cah       1     MIN     Cah    1061	 1.520000	 40.07800
1062    Oh       1     MIN      Oh    1062	-1.160000	 15.99940
1063     H       1     MIN       H    1063	 0.400000	 1.007940
1064    Oh       1     MIN      Oh    1064	-1.160000	 15.99940
1065     H       1     MIN       H    1065	 0.400000	 1.007940
1066   Cah       1     MIN     Cah    1066	 1.520000	 40.07800
1067    Oh       1     MIN      Oh    1067	-1.160000	 15.99940
1068     H       1     MIN       H    1068	 0.400000	 1.007940
1069    Oh       1     MIN      Oh    1069	-1.160000	 15.99940
1070     H       1     MIN       H    1070	 0.400000	 1.007940
1071   Cah       1     MIN     Cah    1071	 1.520000	 40.07800
1072    Oh       1     MIN      Oh    1072	-1.160000	 15.99940
1073     H       1     MIN       H    1073	 0.400000	 1.007940
1074    Oh       1     MIN      Oh    1074	-1.160000	 15.99940
1075     H       1     MIN       H    1075	 0.400000	 1.007940
1076   Cah       1     MIN     Cah    1076	 1.520000	 40.07800
1077    Oh       1     MIN      Oh    1077	-1.160000	 15.99940
1078     H       1     MIN       H    1078	 0.400000	 1.007940
1079    Oh       1     MIN      Oh    1079	-1.160000	 15.99940
1080     H       1     MIN       H    1080	 0.400000	 1.007940
1081   Cah       1     MIN     Cah    1081	 1.520000	 40.07800
1082    Oh       1     MIN      Oh    1082	-1.160000	 15.99940
1083     H       1     MIN       H    1083	 0.400000	 1.007940
1084    Oh       1     MIN      Oh    1084	-1.160000	 15.99940
1085     H       1     MIN       H    1085	 0.400000	 1.007940
1086   Cah       1     MIN     Cah    1086	 1.520000	 40.07800
1087    Oh       1     MIN      Oh    1087	-1.160000	 15.99940
1088     H       1     MIN       H    1088	 0.400000	 1.007940
1089    Oh       1     MIN      Oh    1089	-1.160000	 15.99940
1090     H       1     MIN       H    1090	 0.400000	 1.007940
1091   Cah       1     MIN     Cah    1091	 1.520000	 40.07800
1092    Oh       1     MIN      Oh    1092	-1.160000	 15.99940
1093     H       1     MIN       H    1093	 0.400000	 1.007940
1094    Oh       1     MIN      Oh    1094	-1.160000	 15.99940
1095     H       1     MIN       H    1095	 0.400000	 1.007940
1096   Cah       1     MIN     Cah    1096	 1.520000	 40.07800
1097    Oh       1     MIN      Oh    1097	-1.160000	 15.99940
1098     H       1     MIN       H    1098	 0.400000	 1.007940
1099    Oh       1     MIN      Oh    1099	-1.160000	 15.99940
1100     H       1     MIN       H    1100	 0.400000	 1.007940
1101   Cah       1     MIN     Cah    1101	 1.520000	 40.07800
1102    Oh       1     MIN      Oh    1102	-1.160000	 15.99940
1103     H       1     MIN       H    1103	 0.400000	 1.007940
1104    Oh       1     MIN      Oh    1104	-1.160000	 15.99940
1105     H       1     MIN       H    1105	 0.400000	 1.007940
1106   Cah       1     MIN     Cah    1106	 1.520000	 40.07800
1107    Oh       1     MIN      Oh    1107	-1.160000	 15.99940
1108     H       1     MIN       H    1108	 0.400000	 1.007940
1109    Oh       1     MIN      Oh    1109	-1.160000	 15.99940
1110     H       1     MIN       H    1110	 0.400000	 1.007940
1111   Cah       1     MIN     Cah    1111	 1.520000	 40.07800
1112    Oh       1     MIN      Oh    1112	-1.160000	 15.99940
1113     H       1     MIN       H    1113	 0.400000	 1.007940
1114    Oh       1     MIN      Oh    1114	-1.160000	 15.99940
1115     H       1     MIN       H    1115	 0.400000	 1.007940
1116   Cah       1     MIN     Cah    1116	 1.520000	 40.07800
1117    Oh       1     MIN      Oh    1117	-1.160000	 15.99940
1118     H       1     MIN       H    1118	 0.400000	 1.007940
1119    Oh       1     MIN      Oh    1119	-1.160000	 15.99940
1120     H       1     MIN       H    1120	 0.400000	 1.007940
1121   Cah       1     MIN     Cah    1121	 1.520000	 40.07800
1122    Oh       1     MIN      Oh    1122	-1.160000	 15.99940
1123     H       1     MIN       H    1123	 0.400000	 1.007940
1124    Oh       1     MIN      Oh    1124	-1.160000	 15.99940
1125     H       1     MIN       H    1125	 0.400000	 1.007940
1126   Cah       1     MIN     Cah    1126	 1.520000	 40.07800
1127    Oh       1     MIN      Oh    1127	-1.160000	 15.99940
1128     H       1     MIN       H    1128	 0.400000	 1.007940
1129    Oh       1     MIN      Oh    1129	-1.160000	 15.99940
1130     H       1     MIN       H    1130	 0.400000	 1.007940
1131   Cah       1     MIN     Cah    1131	 1.520000	 40.07800
1132    Oh       1     MIN      Oh    1132	-1.160000	 15.99940
1133     H       1     MIN       H    1133	 0.400000	 1.007940
1134    Oh       1     MIN      Oh    1134	-1.160000	 15.99940
1135     H       1     MIN       H    1135	 0.400000	 1.007940
1136   Cah       1     MIN     Cah    1136	 1.520000	 40.07800
1137    Oh       1     MIN      Oh    1137	-1.160000	 15.99940
1138     H       1     MIN       H    1138	 0.400000	 1.007940
1139    Oh       1     MIN      Oh    1139	-1.160000	 15.99940
1140     H       1     MIN       H    1140	 0.400000	 1.007940
1141   Cah       1     MIN     Cah    1141	 1.520000	 40.07800
1142    Oh       1     MIN      Oh    1142	-1.160000	 15.99940
1143     H       1     MIN       H    1143	 0.400000	 1.007940
1144    Oh       1     MIN      Oh    1144	-1.160000	 15.99940
1145     H       1     MIN       H    1145	 0.400000	 1.007940
1146   Cah       1     MIN     Cah    1146	 1.520000	 40.07800
1147    Oh       1     MIN      Oh    1147	-1.160000	 15.99940
1148     H       1     MIN       H    1148	 0.400000	 1.007940
1149    Oh       1     MIN      Oh    1149	-1.160000	 15.99940
1150     H       1     MIN       H    1150	 0.400000	 1.007940
1151   Cah       1     MIN     Cah    1151	 1.520000	 40.07800
1152    Oh       1     MIN      Oh    1152	-1.160000	 15.99940
1153     H       1     MIN       H    1153	 0.400000	 1.007940
1154    Oh       1     MIN      Oh    1154	-1.160000	 15.99940
1155     H       1     MIN       H    1155	 0.400000	 1.007940
1156   Cah       1     MIN     Cah    1156	 1.520000	 40.07800
1157    Oh       1     MIN      Oh    1157	-1.160000	 15.99940
1158     H       1     MIN       H    1158	 0.400000	 1.007940
1159    Oh       1     MIN      Oh    1159	-1.160000	 15.99940
1160     H       1     MIN       H    1160	 0.400000	 1.007940
1161   Cah       1     MIN     Cah    1161	 1.520000	 40.07800
1162    Oh       1     MIN      Oh    1162	-1.160000	 15.99940
1163     H       1     MIN       H    1163	 0.400000	 1.007940
1164    Oh       1     MIN      Oh    1164	-1.160000	 15.99940
1165     H       1     MIN       H    1165	 0.400000	 1.007940
1166   Cah       1     MIN     Cah    1166	 1.520000	 40.07800
1167    Oh       1     MIN      Oh    1167	-1.160000	 15.99940
1168     H       1     MIN       H    1168	 0.400000	 1.007940
1169    Oh       1     MIN      Oh    1169	-1.160000	 15.99940
1170     H       1     MIN       H    1170	 0.400000	 1.007940
1171   Cah       1     MIN     Cah    1171	 1.520000	 40.07800
1172    Oh       1     MIN      Oh    1172	-1.160000	 15.99940
1173     H       1     MIN       H    1173	 0.400000	 1.007940
1174    Oh       1     MIN      Oh    1174	-1.160000	 15.99940
1175     H       1     MIN       H    1175	 0.400000	 1.007940
1176   Cah       1     MIN     Cah    1176	 1.520000	 40.07800
1177    Oh       1     MIN      Oh    1177	-1.160000	 15.99940
1178     H       1     MIN       H    1178	 0.400000	 1.007940
1179    Oh       1     MIN      Oh    1179	-1.160000	 15.99940
1180     H       1     MIN       H    1180	 0.400000	 1.007940
1181   Cah       1     MIN     Cah    1181	 1.520000	 40.07800
1182    Oh       1     MIN      Oh    1182	-1.160000	 15.99940
1183     H       1     MIN       H    1183	 0.400000	 1.007940
1184    Oh       1     MIN      Oh    1184	-1.160000	 15.99940
1185     H       1     MIN       H    1185	 0.400000	 1.007940
1186   Cah       1     MIN     Cah    1186	 1.520000	 40.07800
1187    Oh       1     MIN      Oh    1187	-1.160000	 15.99940
1188     H       1     MIN       H    1188	 0.400000	 1.007940
1189    Oh       1     MIN      Oh    1189	-1.160000	 15.99940
1190     H       1     MIN       H    1190	 0.400000	 1.007940
1191   Cah       1     MIN     Cah    1191	 1.520000	 40.07800
1192    Oh       1     MIN      Oh    1192	-1.160000	 15.99940
1193     H       1     MIN       H    1193	 0.400000	 1.007940
1194    Oh       1     MIN      Oh    1194	-1.160000	 15.99940
1195     H       1     MIN       H    1195	 0.400000	 1.007940
1196   Cah       1     MIN     Cah    1196	 1.520000	 40.07800
1197    Oh       1     MIN      Oh    1197	-1.160000	 15.99940
1198     H       1     MIN       H    1198	 0.400000	 1.007940
1199    Oh       1     MIN      Oh    1199	-1.160000	 15.99940
1200     H       1     MIN       H    1200	 0.400000	 1.007940
1201   Cah       1     MIN     Cah    1201	 1.520000	 40.07800
1202    Oh       1     MIN      Oh    1202	-1.160000	 15.99940
1203     H       1     MIN       H    1203	 0.400000	 1.007940
1204    Oh       1     MIN      Oh    1204	-1.160000	 15.99940
1205     H       1     MIN       H    1205	 0.400000	 1.007940
1206   Cah       1     MIN     Cah    1206	 1.520000	 40.07800
1207    Oh       1     MIN      Oh    1207	-1.160000	 15.99940
1208     H       1     MIN       H    1208	 0.400000	 1.007940
1209    Oh       1     MIN      Oh    1209	-1.160000	 15.99940
1210     H       1     MIN       H    1210	 0.400000	 1.007940
1211   Cah       1     MIN     Cah    1211	 1.520000	 40.07800
1212    Oh       1     MIN      Oh    1212	-1.160000	 15.99940
1213     H       1     MIN       H    1213	 0.400000	 1.007940
1214    Oh       1     MIN      Oh    1214	-1.160000	 15.99940
1215     H       1     MIN       H    1215	 0.400000	 1.007940
1216   Cah       1     MIN     Cah    1216	 1.520000	 40.07800
1217    Oh       1     MIN      Oh    1217	-1.160000	 15.99940
1218     H       1     MIN       H    1218	 0.400000	 1.007940
1219    Oh       1     MIN      Oh    1219	-1.160000	 15.99940
1220     H       1     MIN       H    1220	 0.400000	 1.007940
1221   Cah       1     MIN     Cah    1221	 1.520000	 40.07800
1222    Oh       1     MIN      Oh    1222	-1.160000	 15.99940
1223     H       1     MIN       H    1223	 0.400000	 1.007940
1224    Oh       1     MIN      Oh    1224	-1.160000	 15.99940
1225     H       1     MIN       H    1225	 0.400000	 1.007940
1226   Cah       1     MIN     Cah    1226	 1.520000	 40.07800
1227    Oh       1     MIN      Oh    1227	-1.160000	 15.99940
1228     H       1     MIN       H    1228	 0.400000	 1.007940
1229    Oh       1     MIN      Oh    1229	-1.160000	 15.99940
1230     H       1     MIN       H    1230	 0.400000	 1.007940
1231   Cah       1     MIN     Cah    1231	 1.520000	 40.07800
1232    Oh       1     MIN      Oh    1232	-1.160000	 15.99940
1233     H       1     MIN       H    1233	 0.400000	 1.007940
1234    Oh       1     MIN      Oh    1234	-1.160000	 15.99940
1235     H       1     MIN       H    1235	 0.400000	 1.007940
1236   Cah       1     MIN     Cah    1236	 1.520000	 40.07800
1237    Oh       1     MIN      Oh    1237	-1.160000	 15.99940
1238     H       1     MIN       H    1238	 0.400000	 1.007940
1239    Oh       1     MIN      Oh    1239	-1.160000	 15.99940
1240     H       1     MIN       H    1240	 0.400000	 1.007940
1241   Cah       1     MIN     Cah    1241	 1.520000	 40.07800
1242    Oh       1     MIN      Oh    1242	-1.160000	 15.99940
1243     H       1     MIN       H    1243	 0.400000	 1.007940
1244    Oh       1     MIN      Oh    1244	-1.160000	 15.99940
1245     H       1     MIN       H    1245	 0.400000	 1.007940
1246   Cah       1     MIN     Cah    1246	 1.520000	 40.07800
1247    Oh       1     MIN      Oh    1247	-1.160000	 15.99940
1248     H       1     MIN       H    1248	 0.400000	 1.007940
1249    Oh       1     MIN      Oh    1249	-1.160000	 15.99940
1250     H       1     MIN       H    1250	 0.400000	 1.007940
1251   Cah       1     MIN     Cah    1251	 1.520000	 40.07800
1252    Oh       1     MIN      Oh    1252	-1.160000	 15.99940
1253     H       1     MIN       H    1253	 0.400000	 1.007940
1254    Oh       1     MIN      Oh    1254	-1.160000	 15.99940
1255     H       1     MIN       H    1255	 0.400000	 1.007940
1256   Cah       1     MIN     Cah    1256	 1.520000	 40.07800
1257    Oh       1     MIN      Oh    1257	-1.160000	 15.99940
1258     H       1     MIN       H    1258	 0.400000	 1.007940
1259    Oh       1     MIN      Oh    1259	-1.160000	 15.99940
1260     H       1     MIN       H    1260	 0.400000	 1.007940
1261   Cah       1     MIN     Cah    1261	 1.520000	 40.07800
1262    Oh       1     MIN      Oh    1262	-1.160000	 15.99940
1263     H       1     MIN       H    1263	 0.400000	 1.007940
1264    Oh       1     MIN      Oh    1264	-1.160000	 15.99940
1265     H       1     MIN       H    1265	 0.400000	 1.007940
1266   Cah       1     MIN     Cah    1266	 1.520000	 40.07800
1267    Oh       1     MIN      Oh    1267	-1.160000	 15.99940
1268     H       1     MIN       H    1268	 0.400000	 1.007940
1269    Oh       1     MIN      Oh    1269	-1.160000	 15.99940
1270     H       1     MIN       H    1270	 0.400000	 1.007940
1271   Cah       1     MIN     Cah    1271	 1.520000	 40.07800
1272    Oh       1     MIN      Oh    1272	-1.160000	 15.99940
1273     H       1     MIN       H    1273	 0.400000	 1.007940
1274    Oh       1     MIN      Oh    1274	-1.160000	 15.99940
1275     H       1     MIN       H    1275	 0.400000	 1.007940
1276   Cah       1     MIN     Cah    1276	 1.520000	 40.07800
1277    Oh       1     MIN      Oh    1277	-1.160000	 15.99940
1278     H       1     MIN       H    1278	 0.400000	 1.007940
1279    Oh       1     MIN      Oh    1279	-1.160000	 15.99940
1280     H       1     MIN       H    1280	 0.400000	 1.007940
1281   Cah       1     MIN     Cah    1281	 1.520000	 40.07800
1282    Oh       1     MIN      Oh    1282	-1.160000	 15.99940
1283     H       1     MIN       H    1283	 0.400000	 1.007940
1284    Oh       1     MIN      Oh    1284	-1.160000	 15.99940
1285     H       1     MIN       H    1285	 0.400000	 1.007940
1286   Cah       1     MIN     Cah    1286	 1.520000	 40.07800
1287    Oh       1     MIN      Oh    1287	-1.160000	 15.99940
1288     H       1     MIN       H    1288	 0.400000	 1.007940
1289    Oh       1     MIN      Oh    1289	-1.160000	 15.99940
1290     H       1     MIN       H    1290	 0.400000	 1.007940
1291   Cah       1     MIN     Cah    1291	 1.520000	 40.07800
1292    Oh       1     MIN      Oh    1292	-1.160000	 15.99940
1293     H       1     MIN       H    1293	 0.400000	 1.007940
1294    Oh       1     MIN      Oh    1294	-1.160000	 15.99940
1295     H       1     MIN       H    1295	 0.400000	 1.007940
1296   Cah       1     MIN     Cah    1296	 1.520000	 40.07800
1297    Oh       1     MIN      Oh    1297	-1.160000	 15.99940
1298     H       1     MIN       H    1298	 0.400000	 1.007940
1299    Oh       1     MIN      Oh    1299	-1.160000	 15.99940
1300     H       1     MIN       H    1300	 0.400000	 1.007940
1301   Cah       1     MIN     Cah    1301	 1.520000	 40.07800
1302    Oh       1     MIN      Oh    1302	-1.160000	 15.99940
1303     H       1     MIN       H    1303	 0.400000	 1.007940
1304    Oh       1     MIN      Oh    1304	-1.160000	 15.99940
1305     H       1     MIN       H    1305	 0.400000	 1.007940
1306   Cah       1     MIN     Cah    1306	 1.520000	 40.07800
1307    Oh       1     MIN      Oh    1307	-1.160000	 15.99940
1308     H       1     MIN       H    1308	 0.400000	 1.007940
1309    Oh       1     MIN      Oh    1309	-1.160000	 15.99940
1310     H       1     MIN       H    1310	 0.400000	 1.007940
1311   Cah       1     MIN     Cah    1311	 1.520000	 40.07800
1312    Oh       1     MIN      Oh    1312	-1.160000	 15.99940
1313     H       1     MIN       H    1313	 0.400000	 1.007940
1314    Oh       1     MIN      Oh    1314	-1.160000	 15.99940
1315     H       1     MIN       H    1315	 0.400000	 1.007940
1316   Cah       1     MIN     Cah    1316	 1.520000	 40.07800
1317    Oh       1     MIN      Oh    1317	-1.160000	 15.99940
1318     H       1     MIN       H    1318	 0.400000	 1.007940
1319    Oh       1     MIN      Oh    1319	-1.160000	 15.99940
1320     H       1     MIN       H    1320	 0.400000	 1.007940
1321   Cah       1     MIN     Cah    1321	 1.520000	 40.07800
1322    Oh       1     MIN      Oh    1322	-1.160000	 15.99940
1323     H       1     MIN       H    1323	 0.400000	 1.007940
1324    Oh       1     MIN      Oh    1324	-1.160000	 15.99940
1325     H       1     MIN       H    1325	 0.400000	 1.007940
1326   Cah       1     MIN     Cah    1326	 1.520000	 40.07800
1327    Oh       1     MIN      Oh    1327	-1.160000	 15.99940
1328     H       1     MIN       H    1328	 0.400000	 1.007940
1329    Oh       1     MIN      Oh    1329	-1.160000	 15.99940
1330     H       1     MIN       H    1330	 0.400000	 1.007940
1331   Cah       1     MIN     Cah    1331	 1.520000	 40.07800
1332    Oh       1     MIN      Oh    1332	-1.160000	 15.99940
1333     H       1     MIN       H    1333	 0.400000	 1.007940
1334    Oh       1     MIN      Oh    1334	-1.160000	 15.99940
1335     H       1     MIN       H    1335	 0.400000	 1.007940
1336   Cah       1     MIN     Cah    1336	 1.520000	 40.07800
1337    Oh       1     MIN      Oh    1337	-1.160000	 15.99940
1338     H       1     MIN       H    1338	 0.400000	 1.007940
1339    Oh       1     MIN      Oh    1339	-1.160000	 15.99940
1340     H       1     MIN       H    1340	 0.400000	 1.007940
1341   Cah       1     MIN     Cah    1341	 1.520000	 40.07800
1342    Oh       1     MIN      Oh    1342	-1.160000	 15.99940
1343     H       1     MIN       H    1343	 0.400000	 1.007940
1344    Oh       1     MIN      Oh    1344	-1.160000	 15.99940
1345     H       1     MIN       H    1345	 0.400000	 1.007940
1346   Cah       1     MIN     Cah    1346	 1.520000	 40.07800
1347    Oh       1     MIN      Oh    1347	-1.160000	 15.99940
1348     H       1     MIN       H    1348	 0.400000	 1.007940
1349    Oh       1     MIN      Oh    1349	-1.160000	 15.99940
1350     H       1     MIN       H    1350	 0.400000	 1.007940
1351   Cah       1     MIN     Cah    1351	 1.520000	 40.07800
1352    Oh       1     MIN      Oh    1352	-1.160000	 15.99940
1353     H       1     MIN       H    1353	 0.400000	 1.007940
1354    Oh       1     MIN      Oh    1354	-1.160000	 15.99940
1355     H       1     MIN       H    1355	 0.400000	 1.007940
1356   Cah       1     MIN     Cah    1356	 1.520000	 40.07800
1357    Oh       1     MIN      Oh    1357	-1.160000	 15.99940
1358     H       1     MIN       H    1358	 0.400000	 1.007940
1359    Oh       1     MIN      Oh    1359	-1.160000	 15.99940
1360     H       1     MIN       H    1360	 0.400000	 1.007940
1361   Cah       1     MIN     Cah    1361	 1.520000	 40.07800
1362    Oh       1     MIN      Oh    1362	-1.160000	 15.99940
1363     H       1     MIN       H    1363	 0.400000	 1.007940
1364    Oh       1     MIN      Oh    1364	-1.160000	 15.99940
1365     H       1     MIN       H    1365	 0.400000	 1.007940
1366   Cah       1     MIN     Cah    1366	 1.520000	 40.07800
1367    Oh       1     MIN      Oh    1367	-1.160000	 15.99940
1368     H       1     MIN       H    1368	 0.400000	 1.007940
1369    Oh       1     MIN      Oh    1369	-1.160000	 15.99940
1370     H       1     MIN       H    1370	 0.400000	 1.007940
1371   Cah       1     MIN     Cah    1371	 1.520000	 40.07800
1372    Oh       1     MIN      Oh    1372	-1.160000	 15.99940
1373     H       1     MIN       H    1373	 0.400000	 1.007940
1374    Oh       1     MIN      Oh    1374	-1.160000	 15.99940
1375     H       1     MIN       H    1375	 0.400000	 1.007940
1376   Cah       1     MIN     Cah    1376	 1.520000	 40.07800
1377    Oh       1     MIN      Oh    1377	-1.160000	 15.99940
1378     H       1     MIN       H    1378	 0.400000	 1.007940
1379    Oh       1     MIN      Oh    1379	-1.160000	 15.99940
1380     H       1     MIN       H    1380	 0.400000	 1.007940
1381   Cah       1     MIN     Cah    1381	 1.520000	 40.07800
1382    Oh       1     MIN      Oh    1382	-1.160000	 15.99940
1383     H       1     MIN       H    1383	 0.400000	 1.007940
1384    Oh       1     MIN      Oh    1384	-1.160000	 15.99940
1385     H       1     MIN       H    1385	 0.400000	 1.007940
1386   Cah       1     MIN     Cah    1386	 1.520000	 40.07800
1387    Oh       1     MIN      Oh    1387	-1.160000	 15.99940
1388     H       1     MIN       H    1388	 0.400000	 1.007940
1389    Oh       1     MIN      Oh    1389	-1.160000	 15.99940
1390     H       1     MIN       H    1390	 0.400000	 1.007940
1391   Cah       1     MIN     Cah    1391	 1.520000	 40.07800
1392    Oh       1     MIN      Oh    1392	-1.160000	 15.99940
1393     H       1     MIN       H    1393	 0.400000	 1.007940
1394    Oh       1     MIN      Oh    1394	-1.160000	 15.99940
1395     H       1     MIN       H    1395	 0.400000	 1.007940
1396   Cah       1     MIN     Cah    1396	 1.520000	 40.07800
1397    Oh       1     MIN      Oh    1397	-1.160000	 15.99940
1398     H       1     MIN       H    1398	 0.400000	 1.007940
1399    Oh       1     MIN      Oh    1399	-1.160000	 15.99940
1400     H       1     MIN       H    1400	 0.400000	 1.007940
1401   Cah       1     MIN     Cah    1401	 1.520000	 40.07800
1402    Oh       1     MIN      Oh    1402	-1.160000	 15.99940
1403     H       1     MIN       H    1403	 0.400000	 1.007940
1404    Oh       1     MIN      Oh    1404	-1.160000	 15.99940
1405     H       1     MIN       H    1405	 0.400000	 1.007940
1406   Cah       1     MIN     Cah    1406	 1.520000	 40.07800
1407    Oh       1     MIN      Oh    1407	-1.160000	 15.99940
1408     H       1     MIN       H    1408	 0.400000	 1.007940
1409    Oh       1     MIN      Oh    1409	-1.160000	 15.99940
1410     H       1     MIN       H    1410	 0.400000	 1.007940
1411   Cah       1     MIN     Cah    1411	 1.520000	 40.07800
1412    Oh       1     MIN      Oh    1412	-1.160000	 15.99940
1413     H       1     MIN       H    1413	 0.400000	 1.007940
1414    Oh       1     MIN      Oh    1414	-1.160000	 15.99940
1415     H       1     MIN       H    1415	 0.400000	 1.007940
1416   Cah       1     MIN     Cah    1416	 1.520000	 40.07800
1417    Oh       1     MIN      Oh    1417	-1.160000	 15.99940
1418     H       1     MIN       H    1418	 0.400000	 1.007940
1419    Oh       1     MIN      Oh    1419	-1.160000	 15.99940
1420     H       1     MIN       H    1420	 0.400000	 1.007940
1421   Cah       1     MIN     Cah    1421	 1.520000	 40.07800
1422    Oh       1     MIN      Oh    1422	-1.160000	 15.99940
1423     H       1     MIN       H    1423	 0.400000	 1.007940
1424    Oh       1     MIN      Oh    1424	-1.160000	 15.99940
1425     H       1     MIN       H    1425	 0.400000	 1.007940
1426   Cah       1     MIN     Cah    1426	 1.520000	 40.07800
1427    Oh       1     MIN      Oh    1427	-1.160000	 15.99940
1428     H       1     MIN       H    1428	 0.400000	 1.007940
1429    Oh       1     MIN      Oh    1429	-1.160000	 15.99940
1430     H       1     MIN       H    1430	 0.400000	 1.007940
1431   Cah       1     MIN     Cah    1431	 1.520000	 40.07800
1432    Oh       1     MIN      Oh    1432	-1.160000	 15.99940
1433     H       1     MIN       H    1433	 0.400000	 1.007940
1434    Oh       1     MIN      Oh    1434	-1.160000	 15.99940
1435     H       1     MIN       H    1435	 0.400000	 1.007940
1436   Cah       1     MIN     Cah    1436	 1.520000	 40.07800
1437    Oh       1     MIN      Oh    1437	-1.160000	 15.99940
1438     H       1     MIN       H    1438	 0.400000	 1.007940
1439    Oh       1     MIN      Oh    1439	-1.160000	 15.99940
1440     H       1     MIN       H    1440	 0.400000	 1.007940
1441   Cah       1     MIN     Cah    1441	 1.520000	 40.07800
1442    Oh       1     MIN      Oh    1442	-1.160000	 15.99940
1443     H       1     MIN       H    1443	 0.400000	 1.007940
1444    Oh       1     MIN      Oh    1444	-1.160000	 15.99940
1445     H       1     MIN       H    1445	 0.400000	 1.007940
1446   Cah       1     MIN     Cah    1446	 1.520000	 40.07800
1447    Oh       1     MIN      Oh    1447	-1.160000	 15.99940
1448     H       1     MIN       H    1448	 0.400000	 1.007940
1449    Oh       1     MIN      Oh    1449	-1.160000	 15.99940
1450     H       1     MIN       H    1450	 0.400000	 1.007940
1451   Cah       1     MIN     Cah    1451	 1.520000	 40.07800
1452    Oh       1     MIN      Oh    1452	-1.160000	 15.99940
1453     H       1     MIN       H    1453	 0.400000	 1.007940
1454    Oh       1     MIN      Oh    1454	-1.160000	 15.99940
1455     H       1     MIN       H    1455	 0.400000	 1.007940
1456   Cah       1     MIN     Cah    1456	 1.520000	 40.07800
1457    Oh       1     MIN      Oh    1457	-1.160000	 15.99940
1458     H       1     MIN       H    1458	 0.400000	 1.007940
1459    Oh       1     MIN      Oh    1459	-1.160000	 15.99940
1460     H       1     MIN       H    1460	 0.400000	 1.007940
1461   Cah       1     MIN     Cah    1461	 1.520000	 40.07800
1462    Oh       1     MIN      Oh    1462	-1.160000	 15.99940
1463     H       1     MIN       H    1463	 0.400000	 1.007940
1464    Oh       1     MIN      Oh    1464	-1.160000	 15.99940
1465     H       1     MIN       H    1465	 0.400000	 1.007940
1466   Cah       1     MIN     Cah    1466	 1.520000	 40.07800
1467    Oh       1     MIN      Oh    1467	-1.160000	 15.99940
1468     H       1     MIN       H    1468	 0.400000	 1.007940
1469    Oh       1     MIN      Oh    1469	-1.160000	 15.99940
1470     H       1     MIN       H    1470	 0.400000	 1.007940
1471   Cah       1     MIN     Cah    1471	 1.520000	 40.07800
1472    Oh       1     MIN      Oh    1472	-1.160000	 15.99940
1473     H       1     MIN       H    1473	 0.400000	 1.007940
1474    Oh       1     MIN      Oh    1474	-1.160000	 15.99940
1475     H       1     MIN       H    1475	 0.400000	 1.007940
1476   Cah       1     MIN     Cah    1476	 1.520000	 40.07800
1477    Oh       1     MIN      Oh    1477	-1.160000	 15.99940
1478     H       1     MIN       H    1478	 0.400000	 1.007940
1479    Oh       1     MIN      Oh    1479	-1.160000	 15.99940
1480     H       1     MIN       H    1480	 0.400000	 1.007940
1481   Cah       1     MIN     Cah    1481	 1.520000	 40.07800
1482    Oh       1     MIN      Oh    1482	-1.160000	 15.99940
1483     H       1     MIN       H    1483	 0.400000	 1.007940
1484    Oh       1     MIN      Oh    1484	-1.160000	 15.99940
1485     H       1     MIN       H    1485	 0.400000	 1.007940
1486   Cah       1     MIN     Cah    1486	 1.520000	 40.07800
1487    Oh       1     MIN      Oh    1487	-1.160000	 15.99940
1488     H       1     MIN       H    1488	 0.400000	 1.007940
1489    Oh       1     MIN      Oh    1489	-1.160000	 15.99940
1490     H       1     MIN       H    1490	 0.400000	 1.007940
1491   Cah       1     MIN     Cah    1491	 1.520000	 40.07800
1492    Oh       1     MIN      Oh    1492	-1.160000	 15.99940
1493     H       1     MIN       H    1493	 0.400000	 1.007940
1494    Oh       1     MIN      Oh    1494	-1.160000	 15.99940
1495     H       1     MIN       H    1495	 0.400000	 1.007940
1496   Cah       1     MIN     Cah    1496	 1.520000	 40.07800
1497    Oh       1     MIN      Oh    1497	-1.160000	 15.99940
1498     H       1     MIN       H    1498	 0.400000	 1.007940
1499    Oh       1     MIN      Oh    1499	-1.160000	 15.99940
1500     H       1     MIN       H    1500	 0.400000	 1.007940
1501   Cah       1     MIN     Cah    1501	 1.520000	 40.07800
1502    Oh       1     MIN      Oh    1502	-1.160000	 15.99940
1503     H       1     MIN       H    1503	 0.400000	 1.007940
1504    Oh       1     MIN      Oh    1504	-1.160000	 15.99940
1505     H       1     MIN       H    1505	 0.400000	 1.007940
1506   Cah       1     MIN     Cah    1506	 1.520000	 40.07800
1507    Oh       1     MIN      Oh    1507	-1.160000	 15.99940
1508     H       1     MIN       H    1508	 0.400000	 1.007940
1509    Oh       1     MIN      Oh    1509	-1.160000	 15.99940
1510     H       1     MIN       H    1510	 0.400000	 1.007940
1511   Cah       1     MIN     Cah    1511	 1.520000	 40.07800
1512    Oh       1     MIN      Oh    1512	-1.160000	 15.99940
1513     H       1     MIN       H    1513	 0.400000	 1.007940
1514    Oh       1     MIN      Oh    1514	-1.160000	 15.99940
1515     H       1     MIN       H    1515	 0.400000	 1.007940
1516   Cah       1     MIN     Cah    1516	 1.520000	 40.07800
1517    Oh       1     MIN      Oh    1517	-1.160000	 15.99940
1518     H       1     MIN       H    1518	 0.400000	 1.007940
1519    Oh       1     MIN      Oh    1519	-1.160000	 15.99940
1520     H       1     MIN       H    1520	 0.400000	 1.007940
1521   Cah       1     MIN     Cah    1521	 1.520000	 40.07800
1522    Oh       1     MIN      Oh    1522	-1.160000	 15.99940
1523     H       1     MIN       H    1523	 0.400000	 1.007940
1524    Oh       1     MIN      Oh    1524	-1.160000	 15.99940
1525     H       1     MIN       H    1525	 0.400000	 1.007940
1526   Cah       1     MIN     Cah    1526	 1.520000	 40.07800
1527    Oh       1     MIN      Oh    1527	-1.160000	 15.99940
1528     H       1     MIN       H    1528	 0.400000	 1.007940
1529    Oh       1     MIN      Oh    1529	-1.160000	 15.99940
1530     H       1     MIN       H    1530	 0.400000	 1.007940
1531   Cah       1     MIN     Cah    1531	 1.520000	 40.07800
1532    Oh       1     MIN      Oh    1532	-1.160000	 15.99940
1533     H       1     MIN       H    1533	 0.400000	 1.007940
1534    Oh       1     MIN      Oh    1534	-1.160000	 15.99940
1535     H       1     MIN       H    1535	 0.400000	 1.007940
1536   Cah       1     MIN     Cah    1536	 1.520000	 40.07800
1537    Oh       1     MIN      Oh    1537	-1.160000	 15.99940
1538     H       1     MIN       H    1538	 0.400000	 1.007940
1539    Oh       1     MIN      Oh    1539	-1.160000	 15.99940
1540     H       1     MIN       H    1540	 0.400000	 1.007940
1541   Cah       1     MIN     Cah    1541	 1.520000	 40.07800
1542    Oh       1     MIN      Oh    1542	-1.160000	 15.99940
1543     H       1     MIN       H    1543	 0.400000	 1.007940
1544    Oh       1     MIN      Oh    1544	-1.160000	 15.99940
1545     H       1     MIN       H    1545	 0.400000	 1.007940
1546   Cah       1     MIN     Cah    1546	 1.520000	 40.07800
1547    Oh       1     MIN      Oh    1547	-1.160000	 15.99940
1548     H       1     MIN       H    1548	 0.400000	 1.007940
1549    Oh       1     MIN      Oh    1549	-1.160000	 15.99940
1550     H       1     MIN       H    1550	 0.400000	 1.007940
1551   Cah       1     MIN     Cah    1551	 1.520000	 40.07800
1552    Oh       1     MIN      Oh    1552	-1.160000	 15.99940
1553     H       1     MIN       H    1553	 0.400000	 1.007940
1554    Oh       1     MIN      Oh    1554	-1.160000	 15.99940
1555     H       1     MIN       H    1555	 0.400000	 1.007940
1556   Cah       1     MIN     Cah    1556	 1.520000	 40.07800
1557    Oh       1     MIN      Oh    1557	-1.160000	 15.99940
1558     H       1     MIN       H    1558	 0.400000	 1.007940
1559    Oh       1     MIN      Oh    1559	-1.160000	 15.99940
1560     H       1     MIN       H    1560	 0.400000	 1.007940
1561   Cah       1     MIN     Cah    1561	 1.520000	 40.07800
1562    Oh       1     MIN      Oh    1562	-1.160000	 15.99940
1563     H       1     MIN       H    1563	 0.400000	 1.007940
1564    Oh       1     MIN      Oh    1564	-1.160000	 15.99940
1565     H       1     MIN       H    1565	 0.400000	 1.007940
1566   Cah       1     MIN     Cah    1566	 1.520000	 40.07800
1567    Oh       1     MIN      Oh    1567	-1.160000	 15.99940
1568     H       1     MIN       H    1568	 0.400000	 1.007940
1569    Oh       1     MIN      Oh    1569	-1.160000	 15.99940
1570     H       1     MIN       H    1570	 0.400000	 1.007940
1571   Cah       1     MIN     Cah    1571	 1.520000	 40.07800
1572    Oh       1     MIN      Oh    1572	-1.160000	 15.99940
1573     H       1     MIN       H    1573	 0.400000	 1.007940
1574    Oh       1     MIN      Oh    1574	-1.160000	 15.99940
1575     H       1     MIN       H    1575	 0.400000	 1.007940
1576   Cah       1     MIN     Cah    1576	 1.520000	 40.07800
1577    Oh       1     MIN      Oh    1577	-1.160000	 15.99940
1578     H       1     MIN       H    1578	 0.400000	 1.007940
1579    Oh       1     MIN      Oh    1579	-1.160000	 15.99940
1580     H       1     MIN       H    1580	 0.400000	 1.007940
1581   Cah       1     MIN     Cah    1581	 1.520000	 40.07800
1582    Oh       1     MIN      Oh    1582	-1.160000	 15.99940
1583     H       1     MIN       H    1583	 0.400000	 1.007940
1584    Oh       1     MIN      Oh    1584	-1.160000	 15.99940
1585     H       1     MIN       H    1585	 0.400000	 1.007940
1586   Cah       1     MIN     Cah    1586	 1.520000	 40.07800
1587    Oh       1     MIN      Oh    1587	-1.160000	 15.99940
1588     H       1     MIN       H    1588	 0.400000	 1.007940
1589    Oh       1     MIN      Oh    1589	-1.160000	 15.99940
1590     H       1     MIN       H    1590	 0.400000	 1.007940
1591   Cah       1     MIN     Cah    1591	 1.520000	 40.07800
1592    Oh       1     MIN      Oh    1592	-1.160000	 15.99940
1593     H       1     MIN       H    1593	 0.400000	 1.007940
1594    Oh       1     MIN      Oh    1594	-1.160000	 15.99940
1595     H       1     MIN       H    1595	 0.400000	 1.007940
1596   Cah       1     MIN     Cah    1596	 1.520000	 40.07800
1597    Oh       1     MIN      Oh    1597	-1.160000	 15.99940
1598     H       1     MIN       H    1598	 0.400000	 1.007940
1599    Oh       1     MIN      Oh    1599	-1.160000	 15.99940
1600     H       1     MIN       H    1600	 0.400000	 1.007940
1601   Cah       1     MIN     Cah    1601	 1.520000	 40.07800
1602    Oh       1     MIN      Oh    1602	-1.160000	 15.99940
1603     H       1     MIN       H    1603	 0.400000	 1.007940
1604    Oh       1     MIN      Oh    1604	-1.160000	 15.99940
1605     H       1     MIN       H    1605	 0.400000	 1.007940
1606   Cah       1     MIN     Cah    1606	 1.520000	 40.07800
1607    Oh       1     MIN      Oh    1607	-1.160000	 15.99940
1608     H       1     MIN       H    1608	 0.400000	 1.007940
1609    Oh       1     MIN      Oh    1609	-1.160000	 15.99940
1610     H       1     MIN       H    1610	 0.400000	 1.007940
1611   Cah       1     MIN     Cah    1611	 1.520000	 40.07800
1612    Oh       1     MIN      Oh    1612	-1.160000	 15.99940
1613     H       1     MIN       H    1613	 0.400000	 1.007940
1614    Oh       1     MIN      Oh    1614	-1.160000	 15.99940
1615     H       1     MIN       H    1615	 0.400000	 1.007940
1616   Cah       1     MIN     Cah    1616	 1.520000	 40.07800
1617    Oh       1     MIN      Oh    1617	-1.160000	 15.99940
1618     H       1     MIN       H    1618	 0.400000	 1.007940
1619    Oh       1     MIN      Oh    1619	-1.160000	 15.99940
1620     H       1     MIN       H    1620	 0.400000	 1.007940
1621   Cah       1     MIN     Cah    1621	 1.520000	 40.07800
1622    Oh       1     MIN      Oh    1622	-1.160000	 15.99940
1623     H       1     MIN       H    1623	 0.400000	 1.007940
1624    Oh       1     MIN      Oh    1624	-1.160000	 15.99940
1625     H       1     MIN       H    1625	 0.400000	 1.007940
1626   Cah       1     MIN     Cah    1626	 1.520000	 40.07800
1627    Oh       1     MIN      Oh    1627	-1.160000	 15.99940
1628     H       1     MIN       H    1628	 0.400000	 1.007940
1629    Oh       1     MIN      Oh    1629	-1.160000	 15.99940
1630     H       1     MIN       H    1630	 0.400000	 1.007940
1631   Cah       1     MIN     Cah    1631	 1.520000	 40.07800
1632    Oh       1     MIN      Oh    1632	-1.160000	 15.99940
1633     H       1     MIN       H    1633	 0.400000	 1.007940
1634    Oh       1     MIN      Oh    1634	-1.160000	 15.99940
1635     H       1     MIN       H    1635	 0.400000	 1.007940
1636   Cah       1     MIN     Cah    1636	 1.520000	 40.07800
1637    Oh       1     MIN      Oh    1637	-1.160000	 15.99940
1638     H       1     MIN       H    1638	 0.400000	 1.007940
1639    Oh       1     MIN      Oh    1639	-1.160000	 15.99940
1640     H       1     MIN       H    1640	 0.400000	 1.007940
1641   Cah       1     MIN     Cah    1641	 1.520000	 40.07800
1642    Oh       1     MIN      Oh    1642	-1.160000	 15.99940
1643     H       1     MIN       H    1643	 0.400000	 1.007940
1644    Oh       1     MIN      Oh    1644	-1.160000	 15.99940
1645     H       1     MIN       H    1645	 0.400000	 1.007940
1646   Cah       1     MIN     Cah    1646	 1.520000	 40.07800
1647    Oh       1     MIN      Oh    1647	-1.160000	 15.99940
1648     H       1     MIN       H    1648	 0.400000	 1.007940
1649    Oh       1     MIN      Oh    1649	-1.160000	 15.99940
1650     H       1     MIN       H    1650	 0.400000	 1.007940
1651   Cah       1     MIN     Cah    1651	 1.520000	 40.07800
1652    Oh       1     MIN      Oh    1652	-1.160000	 15.99940
1653     H       1     MIN       H    1653	 0.400000	 1.007940
1654    Oh       1     MIN      Oh    1654	-1.160000	 15.99940
1655     H       1     MIN       H    1655	 0.400000	 1.007940
1656   Cah       1     MIN     Cah    1656	 1.520000	 40.07800
1657    Oh       1     MIN      Oh    1657	-1.160000	 15.99940
1658     H       1     MIN       H    1658	 0.400000	 1.007940
1659    Oh       1     MIN      Oh    1659	-1.160000	 15.99940
1660     H       1     MIN       H    1660	 0.400000	 1.007940
1661   Cah       1     MIN     Cah    1661	 1.520000	 40.07800
1662    Oh       1     MIN      Oh    1662	-1.160000	 15.99940
1663     H       1     MIN       H    1663	 0.400000	 1.007940
1664    Oh       1     MIN      Oh    1664	-1.160000	 15.99940
1665     H       1     MIN       H    1665	 0.400000	 1.007940
1666   Cah       1     MIN     Cah    1666	 1.520000	 40.07800
1667    Oh       1     MIN      Oh    1667	-1.160000	 15.99940
1668     H       1     MIN       H    1668	 0.400000	 1.007940
1669    Oh       1     MIN      Oh    1669	-1.160000	 15.99940
1670     H       1     MIN       H    1670	 0.400000	 1.007940
1671   Cah       1     MIN     Cah    1671	 1.520000	 40.07800
1672    Oh       1     MIN      Oh    1672	-1.160000	 15.99940
1673     H       1     MIN       H    1673	 0.400000	 1.007940
1674    Oh       1     MIN      Oh    1674	-1.160000	 15.99940
1675     H       1     MIN       H    1675	 0.400000	 1.007940
1676   Cah       1     MIN     Cah    1676	 1.520000	 40.07800
1677    Oh       1     MIN      Oh    1677	-1.160000	 15.99940
1678     H       1     MIN       H    1678	 0.400000	 1.007940
1679    Oh       1     MIN      Oh    1679	-1.160000	 15.99940
1680     H       1     MIN       H    1680	 0.400000	 1.007940
1681   Cah       1     MIN     Cah    1681	 1.520000	 40.07800
1682    Oh       1     MIN      Oh    1682	-1.160000	 15.99940
1683     H       1     MIN       H    1683	 0.400000	 1.007940
1684    Oh       1     MIN      Oh    1684	-1.160000	 15.99940
1685     H       1     MIN       H    1685	 0.400000	 1.007940
1686   Cah       1     MIN     Cah    1686	 1.520000	 40.07800
1687    Oh       1     MIN      Oh    1687	-1.160000	 15.99940
1688     H       1     MIN       H    1688	 0.400000	 1.007940
1689    Oh       1     MIN      Oh    1689	-1.160000	 15.99940
1690     H       1     MIN       H    1690	 0.400000	 1.007940
1691   Cah       1     MIN     Cah    1691	 1.520000	 40.07800
1692    Oh       1     MIN      Oh    1692	-1.160000	 15.99940
1693     H       1     MIN       H    1693	 0.400000	 1.007940
1694    Oh       1     MIN      Oh    1694	-1.160000	 15.99940
1695     H       1     MIN       H    1695	 0.400000	 1.007940
1696   Cah       1     MIN     Cah    1696	 1.520000	 40.07800
1697    Oh       1     MIN      Oh    1697	-1.160000	 15.99940
1698     H       1     MIN       H    1698	 0.400000	 1.007940
1699    Oh       1     MIN      Oh    1699	-1.160000	 15.99940
1700     H       1     MIN       H    1700	 0.400000	 1.007940
1701   Cah       1     MIN     Cah    1701	 1.520000	 40.07800
1702    Oh       1     MIN      Oh    1702	-1.160000	 15.99940
1703     H       1     MIN       H    1703	 0.400000	 1.007940
1704    Oh       1     MIN      Oh    1704	-1.160000	 15.99940
1705     H       1     MIN       H    1705	 0.400000	 1.007940
1706   Cah       1     MIN     Cah    1706	 1.520000	 40.07800
1707    Oh       1     MIN      Oh    1707	-1.160000	 15.99940
1708     H       1     MIN       H    1708	 0.400000	 1.007940
1709    Oh       1     MIN      Oh    1709	-1.160000	 15.99940
1710     H       1     MIN       H    1710	 0.400000	 1.007940
1711   Cah       1     MIN     Cah    1711	 1.520000	 40.07800
1712    Oh       1     MIN      Oh    1712	-1.160000	 15.99940
1713     H       1     MIN       H    1713	 0.400000	 1.007940
1714    Oh       1     MIN      Oh    1714	-1.160000	 15.99940
1715     H       1     MIN       H    1715	 0.400000	 1.007940
1716   Cah       1     MIN     Cah    1716	 1.520000	 40.07800
1717    Oh       1     MIN      Oh    1717	-1.160000	 15.99940
1718     H       1     MIN       H    1718	 0.400000	 1.007940
1719    Oh       1     MIN      Oh    1719	-1.160000	 15.99940
1720     H       1     MIN       H    1720	 0.400000	 1.007940
1721   Cah       1     MIN     Cah    1721	 1.520000	 40.07800
1722    Oh       1     MIN      Oh    1722	-1.160000	 15.99940
1723     H       1     MIN       H    1723	 0.400000	 1.007940
1724    Oh       1     MIN      Oh    1724	-1.160000	 15.99940
1725     H       1     MIN       H    1725	 0.400000	 1.007940
1726   Cah       1     MIN     Cah    1726	 1.520000	 40.07800
1727    Oh       1     MIN      Oh    1727	-1.160000	 15.99940
1728     H       1     MIN       H    1728	 0.400000	 1.007940
1729    Oh       1     MIN      Oh    1729	-1.160000	 15.99940
1730     H       1     MIN       H    1730	 0.400000	 1.007940
1731   Cah       1     MIN     Cah    1731	 1.520000	 40.07800
1732    Oh       1     MIN      Oh    1732	-1.160000	 15.99940
1733     H       1     MIN       H    1733	 0.400000	 1.007940
1734    Oh       1     MIN      Oh    1734	-1.160000	 15.99940
1735     H       1     MIN       H    1735	 0.400000	 1.007940
1736   Cah       1     MIN     Cah    1736	 1.520000	 40.07800
1737    Oh       1     MIN      Oh    1737	-1.160000	 15.99940
1738     H       1     MIN       H    1738	 0.400000	 1.007940
1739    Oh       1     MIN      Oh    1739	-1.160000	 15.99940
1740     H       1     MIN       H    1740	 0.400000	 1.007940
1741   Cah       1     MIN     Cah    1741	 1.520000	 40.07800
1742    Oh       1     MIN      Oh    1742	-1.160000	 15.99940
1743     H       1     MIN       H    1743	 0.400000	 1.007940
1744    Oh       1     MIN      Oh    1744	-1.160000	 15.99940
1745     H       1     MIN       H    1745	 0.400000	 1.007940
1746   Cah       1     MIN     Cah    1746	 1.520000	 40.07800
1747    Oh       1     MIN      Oh    1747	-1.160000	 15.99940
1748     H       1     MIN       H    1748	 0.400000	 1.007940
1749    Oh       1     MIN      Oh    1749	-1.160000	 15.99940
1750     H       1     MIN       H    1750	 0.400000	 1.007940
1751   Cah       1     MIN     Cah    1751	 1.520000	 40.07800
1752    Oh       1     MIN      Oh    1752	-1.160000	 15.99940
1753     H       1     MIN       H    1753	 0.400000	 1.007940
1754    Oh       1     MIN      Oh    1754	-1.160000	 15.99940
1755     H       1     MIN       H    1755	 0.400000	 1.007940
1756   Cah       1     MIN     Cah    1756	 1.520000	 40.07800
1757    Oh       1     MIN      Oh    1757	-1.160000	 15.99940
1758     H       1     MIN       H    1758	 0.400000	 1.007940
1759    Oh       1     MIN      Oh    1759	-1.160000	 15.99940
1760     H       1     MIN       H    1760	 0.400000	 1.007940
1761   Cah       1     MIN     Cah    1761	 1.520000	 40.07800
1762    Oh       1     MIN      Oh    1762	-1.160000	 15.99940
1763     H       1     MIN       H    1763	 0.400000	 1.007940
1764    Oh       1     MIN      Oh    1764	-1.160000	 15.99940
1765     H       1     MIN       H    1765	 0.400000	 1.007940
1766   Cah       1     MIN     Cah    1766	 1.520000	 40.07800
1767    Oh       1     MIN      Oh    1767	-1.160000	 15.99940
1768     H       1     MIN       H    1768	 0.400000	 1.007940
1769    Oh       1     MIN      Oh    1769	-1.160000	 15.99940
1770     H       1     MIN       H    1770	 0.400000	 1.007940
1771   Cah       1     MIN     Cah    1771	 1.520000	 40.07800
1772    Oh       1     MIN      Oh    1772	-1.160000	 15.99940
1773     H       1     MIN       H    1773	 0.400000	 1.007940
1774    Oh       1     MIN      Oh    1774	-1.160000	 15.99940
1775     H       1     MIN       H    1775	 0.400000	 1.007940
1776   Cah       1     MIN     Cah    1776	 1.520000	 40.07800
1777    Oh       1     MIN      Oh    1777	-1.160000	 15.99940
1778     H       1     MIN       H    1778	 0.400000	 1.007940
1779    Oh       1     MIN      Oh    1779	-1.160000	 15.99940
1780     H       1     MIN       H    1780	 0.400000	 1.007940
1781   Cah       1     MIN     Cah    1781	 1.520000	 40.07800
1782    Oh       1     MIN      Oh    1782	-1.160000	 15.99940
1783     H       1     MIN       H    1783	 0.400000	 1.007940
1784    Oh       1     MIN      Oh    1784	-1.160000	 15.99940
1785     H       1     MIN       H    1785	 0.400000	 1.007940
1786   Cah       1     MIN     Cah    1786	 1.520000	 40.07800
1787    Oh       1     MIN      Oh    1787	-1.160000	 15.99940
1788     H       1     MIN       H    1788	 0.400000	 1.007940
1789    Oh       1     MIN      Oh    1789	-1.160000	 15.99940
1790     H       1     MIN       H    1790	 0.400000	 1.007940
1791   Cah       1     MIN     Cah    1791	 1.520000	 40.07800
1792    Oh       1     MIN      Oh    1792	-1.160000	 15.99940
1793     H       1     MIN       H    1793	 0.400000	 1.007940
1794    Oh       1     MIN      Oh    1794	-1.160000	 15.99940
1795     H       1     MIN       H    1795	 0.400000	 1.007940
1796   Cah       1     MIN     Cah    1796	 1.520000	 40.07800
1797    Oh       1     MIN      Oh    1797	-1.160000	 15.99940
1798     H       1     MIN       H    1798	 0.400000	 1.007940
1799    Oh       1     MIN      Oh    1799	-1.160000	 15.99940
1800     H       1     MIN       H    1800	 0.400000	 1.007940

[ bonds ] 
; i    j    type
2     3     1     ; 0.0920   Oh-H 
4     5     1     ; 0.0920   Oh-H 
7     8     1     ; 0.0920   Oh-H 
9     10    1     ; 0.0920   Oh-H 
12    13    1     ; 0.0920   Oh-H 
14    15    1     ; 0.0920   Oh-H 
17    18    1     ; 0.0920   Oh-H 
19    20    1     ; 0.0920   Oh-H 
22    23    1     ; 0.0920   Oh-H 
24    25    1     ; 0.0920   Oh-H 
27    28    1     ; 0.0920   Oh-H 
29    30    1     ; 0.0920   Oh-H 
32    33    1     ; 0.0920   Oh-H 
34    35    1     ; 0.0920   Oh-H 
37    38    1     ; 0.0920   Oh-H 
39    40    1     ; 0.0920   Oh-H 
42    43    1     ; 0.0920   Oh-H 
44    45    1     ; 0.0920   Oh-H 
47    48    1     ; 0.0920   Oh-H 
49    50    1     ; 0.0920   Oh-H 
52    53    1     ; 0.0920   Oh-H 
54    55    1     ; 0.0920   Oh-H 
57    58    1     ; 0.0920   Oh-H 
59    60    1     ; 0.0920   Oh-H 
62    63    1     ; 0.0920   Oh-H 
64    65    1     ; 0.0920   Oh-H 
67    68    1     ; 0.0920   Oh-H 
69    70    1     ; 0.0920   Oh-H 
72    73    1     ; 0.0920   Oh-H 
74    75    1     ; 0.0920   Oh-H 
77    78    1     ; 0.0920   Oh-H 
79    80    1     ; 0.0920   Oh-H 
82    83    1     ; 0.0920   Oh-H 
84    85    1     ; 0.0920   Oh-H 
87    88    1     ; 0.0920   Oh-H 
89    90    1     ; 0.0920   Oh-H 
92    93    1     ; 0.0920   Oh-H 
94    95    1     ; 0.0920   Oh-H 
97    98    1     ; 0.0920   Oh-H 
99    100   1     ; 0.0920   Oh-H 
102   103   1     ; 0.0920   Oh-H 
104   105   1     ; 0.0920   Oh-H 
107   108   1     ; 0.0920   Oh-H 
109   110   1     ; 0.0920   Oh-H 
112   113   1     ; 0.0920   Oh-H 
114   115   1     ; 0.0920   Oh-H 
117   118   1     ; 0.0920   Oh-H 
119   120   1     ; 0.0920   Oh-H 
122   123   1     ; 0.0920   Oh-H 
124   125   1     ; 0.0920   Oh-H 
127   128   1     ; 0.0920   Oh-H 
129   130   1     ; 0.0920   Oh-H 
132   133   1     ; 0.0920   Oh-H 
134   135   1     ; 0.0920   Oh-H 
137   138   1     ; 0.0920   Oh-H 
139   140   1     ; 0.0920   Oh-H 
142   143   1     ; 0.0920   Oh-H 
144   145   1     ; 0.0920   Oh-H 
147   148   1     ; 0.0920   Oh-H 
149   150   1     ; 0.0920   Oh-H 
152   153   1     ; 0.0920   Oh-H 
154   155   1     ; 0.0920   Oh-H 
157   158   1     ; 0.0920   Oh-H 
159   160   1     ; 0.0920   Oh-H 
162   163   1     ; 0.0920   Oh-H 
164   165   1     ; 0.0920   Oh-H 
167   168   1     ; 0.0920   Oh-H 
169   170   1     ; 0.0920   Oh-H 
172   173   1     ; 0.0920   Oh-H 
174   175   1     ; 0.0920   Oh-H 
177   178   1     ; 0.0920   Oh-H 
179   180   1     ; 0.0920   Oh-H 
182   183   1     ; 0.0920   Oh-H 
184   185   1     ; 0.0920   Oh-H 
187   188   1     ; 0.0920   Oh-H 
189   190   1     ; 0.0920   Oh-H 
192   193   1     ; 0.0920   Oh-H 
194   195   1     ; 0.0920   Oh-H 
197   198   1     ; 0.0920   Oh-H 
199   200   1     ; 0.0920   Oh-H 
202   203   1     ; 0.0920   Oh-H 
204   205   1     ; 0.0920   Oh-H 
207   208   1     ; 0.0920   Oh-H 
209   210   1     ; 0.0920   Oh-H 
212   213   1     ; 0.0920   Oh-H 
214   215   1     ; 0.0920   Oh-H 
217   218   1     ; 0.0920   Oh-H 
219   220   1     ; 0.0920   Oh-H 
222   223   1     ; 0.0920   Oh-H 
224   225   1     ; 0.0920   Oh-H 
227   228   1     ; 0.0920   Oh-H 
229   230   1     ; 0.0920   Oh-H 
232   233   1     ; 0.0920   Oh-H 
234   235   1     ; 0.0920   Oh-H 
237   238   1     ; 0.0920   Oh-H 
239   240   1     ; 0.0920   Oh-H 
242   243   1     ; 0.0920   Oh-H 
244   245   1     ; 0.0920   Oh-H 
247   248   1     ; 0.0920   Oh-H 
249   250   1     ; 0.0920   Oh-H 
252   253   1     ; 0.0920   Oh-H 
254   255   1     ; 0.0920   Oh-H 
257   258   1     ; 0.0920   Oh-H 
259   260   1     ; 0.0920   Oh-H 
262   263   1     ; 0.0920   Oh-H 
264   265   1     ; 0.0920   Oh-H 
267   268   1     ; 0.0920   Oh-H 
269   270   1     ; 0.0920   Oh-H 
272   273   1     ; 0.0920   Oh-H 
274   275   1     ; 0.0920   Oh-H 
277   278   1     ; 0.0920   Oh-H 
279   280   1     ; 0.0920   Oh-H 
282   283   1     ; 0.0920   Oh-H 
284   285   1     ; 0.0920   Oh-H 
287   288   1     ; 0.0920   Oh-H 
289   290   1     ; 0.0920   Oh-H 
292   293   1     ; 0.0920   Oh-H 
294   295   1     ; 0.0920   Oh-H 
297   298   1     ; 0.0920   Oh-H 
299   300   1     ; 0.0920   Oh-H 
302   303   1     ; 0.0920   Oh-H 
304   305   1     ; 0.0920   Oh-H 
307   308   1     ; 0.0920   Oh-H 
309   310   1     ; 0.0920   Oh-H 
312   313   1     ; 0.0920   Oh-H 
314   315   1     ; 0.0920   Oh-H 
317   318   1     ; 0.0920   Oh-H 
319   320   1     ; 0.0920   Oh-H 
322   323   1     ; 0.0920   Oh-H 
324   325   1     ; 0.0920   Oh-H 
327   328   1     ; 0.0920   Oh-H 
329   330   1     ; 0.0920   Oh-H 
332   333   1     ; 0.0920   Oh-H 
334   335   1     ; 0.0920   Oh-H 
337   338   1     ; 0.0920   Oh-H 
339   340   1     ; 0.0920   Oh-H 
342   343   1     ; 0.0920   Oh-H 
344   345   1     ; 0.0920   Oh-H 
347   348   1     ; 0.0920   Oh-H 
349   350   1     ; 0.0920   Oh-H 
352   353   1     ; 0.0920   Oh-H 
354   355   1     ; 0.0920   Oh-H 
357   358   1     ; 0.0920   Oh-H 
359   360   1     ; 0.0920   Oh-H 
362   363   1     ; 0.0920   Oh-H 
364   365   1     ; 0.0920   Oh-H 
367   368   1     ; 0.0920   Oh-H 
369   370   1     ; 0.0920   Oh-H 
372   373   1     ; 0.0920   Oh-H 
374   375   1     ; 0.0920   Oh-H 
377   378   1     ; 0.0920   Oh-H 
379   380   1     ; 0.0920   Oh-H 
382   383   1     ; 0.0920   Oh-H 
384   385   1     ; 0.0920   Oh-H 
387   388   1     ; 0.0920   Oh-H 
389   390   1     ; 0.0920   Oh-H 
392   393   1     ; 0.0920   Oh-H 
394   395   1     ; 0.0920   Oh-H 
397   398   1     ; 0.0920   Oh-H 
399   400   1     ; 0.0920   Oh-H 
402   403   1     ; 0.0920   Oh-H 
404   405   1     ; 0.0920   Oh-H 
407   408   1     ; 0.0920   Oh-H 
409   410   1     ; 0.0920   Oh-H 
412   413   1     ; 0.0920   Oh-H 
414   415   1     ; 0.0920   Oh-H 
417   418   1     ; 0.0920   Oh-H 
419   420   1     ; 0.0920   Oh-H 
422   423   1     ; 0.0920   Oh-H 
424   425   1     ; 0.0920   Oh-H 
427   428   1     ; 0.0920   Oh-H 
429   430   1     ; 0.0920   Oh-H 
432   433   1     ; 0.0920   Oh-H 
434   435   1     ; 0.0920   Oh-H 
437   438   1     ; 0.0920   Oh-H 
439   440   1     ; 0.0920   Oh-H 
442   443   1     ; 0.0920   Oh-H 
444   445   1     ; 0.0920   Oh-H 
447   448   1     ; 0.0920   Oh-H 
449   450   1     ; 0.0920   Oh-H 
452   453   1     ; 0.0920   Oh-H 
454   455   1     ; 0.0920   Oh-H 
457   458   1     ; 0.0920   Oh-H 
459   460   1     ; 0.0920   Oh-H 
462   463   1     ; 0.0920   Oh-H 
464   465   1     ; 0.0920   Oh-H 
467   468   1     ; 0.0920   Oh-H 
469   470   1     ; 0.0920   Oh-H 
472   473   1     ; 0.0920   Oh-H 
474   475   1     ; 0.0920   Oh-H 
477   478   1     ; 0.0920   Oh-H 
479   480   1     ; 0.0920   Oh-H 
482   483   1     ; 0.0920   Oh-H 
484   485   1     ; 0.0920   Oh-H 
487   488   1     ; 0.0920   Oh-H 
489   490   1     ; 0.0920   Oh-H 
492   493   1     ; 0.0920   Oh-H 
494   495   1     ; 0.0920   Oh-H 
497   498   1     ; 0.0920   Oh-H 
499   500   1     ; 0.0920   Oh-H 
502   503   1     ; 0.0920   Oh-H 
504   505   1     ; 0.0920   Oh-H 
507   508   1     ; 0.0920   Oh-H 
509   510   1     ; 0.0920   Oh-H 
512   513   1     ; 0.0920   Oh-H 
514   515   1     ; 0.0920   Oh-H 
517   518   1     ; 0.0920   Oh-H 
519   520   1     ; 0.0920   Oh-H 
522   523   1     ; 0.0920   Oh-H 
524   525   1     ; 0.0920   Oh-H 
527   528   1     ; 0.0920   Oh-H 
529   530   1     ; 0.0920   Oh-H 
532   533   1     ; 0.0920   Oh-H 
534   535   1     ; 0.0920   Oh-H 
537   538   1     ; 0.0920   Oh-H 
539   540   1     ; 0.0920   Oh-H 
542   543   1     ; 0.0920   Oh-H 
544   545   1     ; 0.0920   Oh-H 
547   548   1     ; 0.0920   Oh-H 
549   550   1     ; 0.0920   Oh-H 
552   553   1     ; 0.0920   Oh-H 
554   555   1     ; 0.0920   Oh-H 
557   558   1     ; 0.0920   Oh-H 
559   560   1     ; 0.0920   Oh-H 
562   563   1     ; 0.0920   Oh-H 
564   565   1     ; 0.0920   Oh-H 
567   568   1     ; 0.0920   Oh-H 
569   570   1     ; 0.0920   Oh-H 
572   573   1     ; 0.0920   Oh-H 
574   575   1     ; 0.0920   Oh-H 
577   578   1     ; 0.0920   Oh-H 
579   580   1     ; 0.0920   Oh-H 
582   583   1     ; 0.0920   Oh-H 
584   585   1     ; 0.0920   Oh-H 
587   588   1     ; 0.0920   Oh-H 
589   590   1     ; 0.0920   Oh-H 
592   593   1     ; 0.0920   Oh-H 
594   595   1     ; 0.0920   Oh-H 
597   598   1     ; 0.0920   Oh-H 
599   600   1     ; 0.0920   Oh-H 
602   603   1     ; 0.0920   Oh-H 
604   605   1     ; 0.0920   Oh-H 
607   608   1     ; 0.0920   Oh-H 
609   610   1     ; 0.0920   Oh-H 
612   613   1     ; 0.0920   Oh-H 
614   615   1     ; 0.0920   Oh-H 
617   618   1     ; 0.0920   Oh-H 
619   620   1     ; 0.0920   Oh-H 
622   623   1     ; 0.0920   Oh-H 
624   625   1     ; 0.0920   Oh-H 
627   628   1     ; 0.0920   Oh-H 
629   630   1     ; 0.0920   Oh-H 
632   633   1     ; 0.0920   Oh-H 
634   635   1     ; 0.0920   Oh-H 
637   638   1     ; 0.0920   Oh-H 
639   640   1     ; 0.0920   Oh-H 
642   643   1     ; 0.0920   Oh-H 
644   645   1     ; 0.0920   Oh-H 
647   648   1     ; 0.0920   Oh-H 
649   650   1     ; 0.0920   Oh-H 
652   653   1     ; 0.0920   Oh-H 
654   655   1     ; 0.0920   Oh-H 
657   658   1     ; 0.0920   Oh-H 
659   660   1     ; 0.0920   Oh-H 
662   663   1     ; 0.0920   Oh-H 
664   665   1     ; 0.0920   Oh-H 
667   668   1     ; 0.0920   Oh-H 
669   670   1     ; 0.0920   Oh-H 
672   673   1     ; 0.0920   Oh-H 
674   675   1     ; 0.0920   Oh-H 
677   678   1     ; 0.0920   Oh-H 
679   680   1     ; 0.0920   Oh-H 
682   683   1     ; 0.0920   Oh-H 
684   685   1     ; 0.0920   Oh-H 
687   688   1     ; 0.0920   Oh-H 
689   690   1     ; 0.0920   Oh-H 
692   693   1     ; 0.0920   Oh-H 
694   695   1     ; 0.0920   Oh-H 
697   698   1     ; 0.0920   Oh-H 
699   700   1     ; 0.0920   Oh-H 
702   703   1     ; 0.0920   Oh-H 
704   705   1     ; 0.0920   Oh-H 
707   708   1     ; 0.0920   Oh-H 
709   710   1     ; 0.0920   Oh-H 
712   713   1     ; 0.0920   Oh-H 
714   715   1     ; 0.0920   Oh-H 
717   718   1     ; 0.0920   Oh-H 
719   720   1     ; 0.0920   Oh-H 
722   723   1     ; 0.0920   Oh-H 
724   725   1     ; 0.0920   Oh-H 
727   728   1     ; 0.0920   Oh-H 
729   730   1     ; 0.0920   Oh-H 
732   733   1     ; 0.0920   Oh-H 
734   735   1     ; 0.0920   Oh-H 
737   738   1     ; 0.0920   Oh-H 
739   740   1     ; 0.0920   Oh-H 
742   743   1     ; 0.0920   Oh-H 
744   745   1     ; 0.0920   Oh-H 
747   748   1     ; 0.0920   Oh-H 
749   750   1     ; 0.0920   Oh-H 
752   753   1     ; 0.0920   Oh-H 
754   755   1     ; 0.0920   Oh-H 
757   758   1     ; 0.0920   Oh-H 
759   760   1     ; 0.0920   Oh-H 
762   763   1     ; 0.0920   Oh-H 
764   765   1     ; 0.0920   Oh-H 
767   768   1     ; 0.0920   Oh-H 
769   770   1     ; 0.0920   Oh-H 
772   773   1     ; 0.0920   Oh-H 
774   775   1     ; 0.0920   Oh-H 
777   778   1     ; 0.0920   Oh-H 
779   780   1     ; 0.0920   Oh-H 
782   783   1     ; 0.0920   Oh-H 
784   785   1     ; 0.0920   Oh-H 
787   788   1     ; 0.0920   Oh-H 
789   790   1     ; 0.0920   Oh-H 
792   793   1     ; 0.0920   Oh-H 
794   795   1     ; 0.0920   Oh-H 
797   798   1     ; 0.0920   Oh-H 
799   800   1     ; 0.0920   Oh-H 
802   803   1     ; 0.0920   Oh-H 
804   805   1     ; 0.0920   Oh-H 
807   808   1     ; 0.0920   Oh-H 
809   810   1     ; 0.0920   Oh-H 
812   813   1     ; 0.0920   Oh-H 
814   815   1     ; 0.0920   Oh-H 
817   818   1     ; 0.0920   Oh-H 
819   820   1     ; 0.0920   Oh-H 
822   823   1     ; 0.0920   Oh-H 
824   825   1     ; 0.0920   Oh-H 
827   828   1     ; 0.0920   Oh-H 
829   830   1     ; 0.0920   Oh-H 
832   833   1     ; 0.0920   Oh-H 
834   835   1     ; 0.0920   Oh-H 
837   838   1     ; 0.0920   Oh-H 
839   840   1     ; 0.0920   Oh-H 
842   843   1     ; 0.0920   Oh-H 
844   845   1     ; 0.0920   Oh-H 
847   848   1     ; 0.0920   Oh-H 
849   850   1     ; 0.0920   Oh-H 
852   853   1     ; 0.0920   Oh-H 
854   855   1     ; 0.0920   Oh-H 
857   858   1     ; 0.0920   Oh-H 
859   860   1     ; 0.0920   Oh-H 
862   863   1     ; 0.0920   Oh-H 
864   865   1     ; 0.0920   Oh-H 
867   868   1     ; 0.0920   Oh-H 
869   870   1     ; 0.0920   Oh-H 
872   873   1     ; 0.0920   Oh-H 
874   875   1     ; 0.0920   Oh-H 
877   878   1     ; 0.0920   Oh-H 
879   880   1     ; 0.0920   Oh-H 
882   883   1     ; 0.0920   Oh-H 
884   885   1     ; 0.0920   Oh-H 
887   888   1     ; 0.0920   Oh-H 
889   890   1     ; 0.0920   Oh-H 
892   893   1     ; 0.0920   Oh-H 
894   895   1     ; 0.0920   Oh-H 
897   898   1     ; 0.0920   Oh-H 
899   900   1     ; 0.0920   Oh-H 
902   903   1     ; 0.0920   Oh-H 
904   905   1     ; 0.0920   Oh-H 
907   908   1     ; 0.0920   Oh-H 
909   910   1     ; 0.0920   Oh-H 
912   913   1     ; 0.0920   Oh-H 
914   915   1     ; 0.0920   Oh-H 
917   918   1     ; 0.0920   Oh-H 
919   920   1     ; 0.0920   Oh-H 
922   923   1     ; 0.0920   Oh-H 
924   925   1     ; 0.0920   Oh-H 
927   928   1     ; 0.0920   Oh-H 
929   930   1     ; 0.0920   Oh-H 
932   933   1     ; 0.0920   Oh-H 
934   935   1     ; 0.0920   Oh-H 
937   938   1     ; 0.0920   Oh-H 
939   940   1     ; 0.0920   Oh-H 
942   943   1     ; 0.0920   Oh-H 
944   945   1     ; 0.0920   Oh-H 
947   948   1     ; 0.0920   Oh-H 
949   950   1     ; 0.0920   Oh-H 
952   953   1     ; 0.0920   Oh-H 
954   955   1     ; 0.0920   Oh-H 
957   958   1     ; 0.0920   Oh-H 
959   960   1     ; 0.0920   Oh-H 
962   963   1     ; 0.0920   Oh-H 
964   965   1     ; 0.0920   Oh-H 
967   968   1     ; 0.0920   Oh-H 
969   970   1     ; 0.0920   Oh-H 
972   973   1     ; 0.0920   Oh-H 
974   975   1     ; 0.0920   Oh-H 
977   978   1     ; 0.0920   Oh-H 
979   980   1     ; 0.0920   Oh-H 
982   983   1     ; 0.0920   Oh-H 
984   985   1     ; 0.0920   Oh-H 
987   988   1     ; 0.0920   Oh-H 
989   990   1     ; 0.0920   Oh-H 
992   993   1     ; 0.0920   Oh-H 
994   995   1     ; 0.0920   Oh-H 
997   998   1     ; 0.0920   Oh-H 
999   1000  1     ; 0.0920   Oh-H 
1002  1003  1     ; 0.0920   Oh-H 
1004  1005  1     ; 0.0920   Oh-H 
1007  1008  1     ; 0.0920   Oh-H 
1009  1010  1     ; 0.0920   Oh-H 
1012  1013  1     ; 0.0920   Oh-H 
1014  1015  1     ; 0.0920   Oh-H 
1017  1018  1     ; 0.0920   Oh-H 
1019  1020  1     ; 0.0920   Oh-H 
1022  1023  1     ; 0.0920   Oh-H 
1024  1025  1     ; 0.0920   Oh-H 
1027  1028  1     ; 0.0920   Oh-H 
1029  1030  1     ; 0.0920   Oh-H 
1032  1033  1     ; 0.0920   Oh-H 
1034  1035  1     ; 0.0920   Oh-H 
1037  1038  1     ; 0.0920   Oh-H 
1039  1040  1     ; 0.0920   Oh-H 
1042  1043  1     ; 0.0920   Oh-H 
1044  1045  1     ; 0.0920   Oh-H 
1047  1048  1     ; 0.0920   Oh-H 
1049  1050  1     ; 0.0920   Oh-H 
1052  1053  1     ; 0.0920   Oh-H 
1054  1055  1     ; 0.0920   Oh-H 
1057  1058  1     ; 0.0920   Oh-H 
1059  1060  1     ; 0.0920   Oh-H 
1062  1063  1     ; 0.0920   Oh-H 
1064  1065  1     ; 0.0920   Oh-H 
1067  1068  1     ; 0.0920   Oh-H 
1069  1070  1     ; 0.0920   Oh-H 
1072  1073  1     ; 0.0920   Oh-H 
1074  1075  1     ; 0.0920   Oh-H 
1077  1078  1     ; 0.0920   Oh-H 
1079  1080  1     ; 0.0920   Oh-H 
1082  1083  1     ; 0.0920   Oh-H 
1084  1085  1     ; 0.0920   Oh-H 
1087  1088  1     ; 0.0920   Oh-H 
1089  1090  1     ; 0.0920   Oh-H 
1092  1093  1     ; 0.0920   Oh-H 
1094  1095  1     ; 0.0920   Oh-H 
1097  1098  1     ; 0.0920   Oh-H 
1099  1100  1     ; 0.0920   Oh-H 
1102  1103  1     ; 0.0920   Oh-H 
1104  1105  1     ; 0.0920   Oh-H 
1107  1108  1     ; 0.0920   Oh-H 
1109  1110  1     ; 0.0920   Oh-H 
1112  1113  1     ; 0.0920   Oh-H 
1114  1115  1     ; 0.0920   Oh-H 
1117  1118  1     ; 0.0920   Oh-H 
1119  1120  1     ; 0.0920   Oh-H 
1122  1123  1     ; 0.0920   Oh-H 
1124  1125  1     ; 0.0920   Oh-H 
1127  1128  1     ; 0.0920   Oh-H 
1129  1130  1     ; 0.0920   Oh-H 
1132  1133  1     ; 0.0920   Oh-H 
1134  1135  1     ; 0.0920   Oh-H 
1137  1138  1     ; 0.0920   Oh-H 
1139  1140  1     ; 0.0920   Oh-H 
1142  1143  1     ; 0.0920   Oh-H 
1144  1145  1     ; 0.0920   Oh-H 
1147  1148  1     ; 0.0920   Oh-H 
1149  1150  1     ; 0.0920   Oh-H 
1152  1153  1     ; 0.0920   Oh-H 
1154  1155  1     ; 0.0920   Oh-H 
1157  1158  1     ; 0.0920   Oh-H 
1159  1160  1     ; 0.0920   Oh-H 
1162  1163  1     ; 0.0920   Oh-H 
1164  1165  1     ; 0.0920   Oh-H 
1167  1168  1     ; 0.0920   Oh-H 
1169  1170  1     ; 0.0920   Oh-H 
1172  1173  1     ; 0.0920   Oh-H 
1174  1175  1     ; 0.0920   Oh-H 
1177  1178  1     ; 0.0920   Oh-H 
1179  1180  1     ; 0.0920   Oh-H 
1182  1183  1     ; 0.0920   Oh-H 
1184  1185  1     ; 0.0920   Oh-H 
1187  1188  1     ; 0.0920   Oh-H 
1189  1190  1     ; 0.0920   Oh-H 
1192  1193  1     ; 0.0920   Oh-H 
1194  1195  1     ; 0.0920   Oh-H 
1197  1198  1     ; 0.0920   Oh-H 
1199  1200  1     ; 0.0920   Oh-H 
1202  1203  1     ; 0.0920   Oh-H 
1204  1205  1     ; 0.0920   Oh-H 
1207  1208  1     ; 0.0920   Oh-H 
1209  1210  1     ; 0.0920   Oh-H 
1212  1213  1     ; 0.0920   Oh-H 
1214  1215  1     ; 0.0920   Oh-H 
1217  1218  1     ; 0.0920   Oh-H 
1219  1220  1     ; 0.0920   Oh-H 
1222  1223  1     ; 0.0920   Oh-H 
1224  1225  1     ; 0.0920   Oh-H 
1227  1228  1     ; 0.0920   Oh-H 
1229  1230  1     ; 0.0920   Oh-H 
1232  1233  1     ; 0.0920   Oh-H 
1234  1235  1     ; 0.0920   Oh-H 
1237  1238  1     ; 0.0920   Oh-H 
1239  1240  1     ; 0.0920   Oh-H 
1242  1243  1     ; 0.0920   Oh-H 
1244  1245  1     ; 0.0920   Oh-H 
1247  1248  1     ; 0.0920   Oh-H 
1249  1250  1     ; 0.0920   Oh-H 
1252  1253  1     ; 0.0920   Oh-H 
1254  1255  1     ; 0.0920   Oh-H 
1257  1258  1     ; 0.0920   Oh-H 
1259  1260  1     ; 0.0920   Oh-H 
1262  1263  1     ; 0.0920   Oh-H 
1264  1265  1     ; 0.0920   Oh-H 
1267  1268  1     ; 0.0920   Oh-H 
1269  1270  1     ; 0.0920   Oh-H 
1272  1273  1     ; 0.0920   Oh-H 
1274  1275  1     ; 0.0920   Oh-H 
1277  1278  1     ; 0.0920   Oh-H 
1279  1280  1     ; 0.0920   Oh-H 
1282  1283  1     ; 0.0920   Oh-H 
1284  1285  1     ; 0.0920   Oh-H 
1287  1288  1     ; 0.0920   Oh-H 
1289  1290  1     ; 0.0920   Oh-H 
1292  1293  1     ; 0.0920   Oh-H 
1294  1295  1     ; 0.0920   Oh-H 
1297  1298  1     ; 0.0920   Oh-H 
1299  1300  1     ; 0.0920   Oh-H 
1302  1303  1     ; 0.0920   Oh-H 
1304  1305  1     ; 0.0920   Oh-H 
1307  1308  1     ; 0.0920   Oh-H 
1309  1310  1     ; 0.0920   Oh-H 
1312  1313  1     ; 0.0920   Oh-H 
1314  1315  1     ; 0.0920   Oh-H 
1317  1318  1     ; 0.0920   Oh-H 
1319  1320  1     ; 0.0920   Oh-H 
1322  1323  1     ; 0.0920   Oh-H 
1324  1325  1     ; 0.0920   Oh-H 
1327  1328  1     ; 0.0920   Oh-H 
1329  1330  1     ; 0.0920   Oh-H 
1332  1333  1     ; 0.0920   Oh-H 
1334  1335  1     ; 0.0920   Oh-H 
1337  1338  1     ; 0.0920   Oh-H 
1339  1340  1     ; 0.0920   Oh-H 
1342  1343  1     ; 0.0920   Oh-H 
1344  1345  1     ; 0.0920   Oh-H 
1347  1348  1     ; 0.0920   Oh-H 
1349  1350  1     ; 0.0920   Oh-H 
1352  1353  1     ; 0.0920   Oh-H 
1354  1355  1     ; 0.0920   Oh-H 
1357  1358  1     ; 0.0920   Oh-H 
1359  1360  1     ; 0.0920   Oh-H 
1362  1363  1     ; 0.0920   Oh-H 
1364  1365  1     ; 0.0920   Oh-H 
1367  1368  1     ; 0.0920   Oh-H 
1369  1370  1     ; 0.0920   Oh-H 
1372  1373  1     ; 0.0920   Oh-H 
1374  1375  1     ; 0.0920   Oh-H 
1377  1378  1     ; 0.0920   Oh-H 
1379  1380  1     ; 0.0920   Oh-H 
1382  1383  1     ; 0.0920   Oh-H 
1384  1385  1     ; 0.0920   Oh-H 
1387  1388  1     ; 0.0920   Oh-H 
1389  1390  1     ; 0.0920   Oh-H 
1392  1393  1     ; 0.0920   Oh-H 
1394  1395  1     ; 0.0920   Oh-H 
1397  1398  1     ; 0.0920   Oh-H 
1399  1400  1     ; 0.0920   Oh-H 
1402  1403  1     ; 0.0920   Oh-H 
1404  1405  1     ; 0.0920   Oh-H 
1407  1408  1     ; 0.0920   Oh-H 
1409  1410  1     ; 0.0920   Oh-H 
1412  1413  1     ; 0.0920   Oh-H 
1414  1415  1     ; 0.0920   Oh-H 
1417  1418  1     ; 0.0920   Oh-H 
1419  1420  1     ; 0.0920   Oh-H 
1422  1423  1     ; 0.0920   Oh-H 
1424  1425  1     ; 0.0920   Oh-H 
1427  1428  1     ; 0.0920   Oh-H 
1429  1430  1     ; 0.0920   Oh-H 
1432  1433  1     ; 0.0920   Oh-H 
1434  1435  1     ; 0.0920   Oh-H 
1437  1438  1     ; 0.0920   Oh-H 
1439  1440  1     ; 0.0920   Oh-H 
1442  1443  1     ; 0.0920   Oh-H 
1444  1445  1     ; 0.0920   Oh-H 
1447  1448  1     ; 0.0920   Oh-H 
1449  1450  1     ; 0.0920   Oh-H 
1452  1453  1     ; 0.0920   Oh-H 
1454  1455  1     ; 0.0920   Oh-H 
1457  1458  1     ; 0.0920   Oh-H 
1459  1460  1     ; 0.0920   Oh-H 
1462  1463  1     ; 0.0920   Oh-H 
1464  1465  1     ; 0.0920   Oh-H 
1467  1468  1     ; 0.0920   Oh-H 
1469  1470  1     ; 0.0920   Oh-H 
1472  1473  1     ; 0.0920   Oh-H 
1474  1475  1     ; 0.0920   Oh-H 
1477  1478  1     ; 0.0920   Oh-H 
1479  1480  1     ; 0.0920   Oh-H 
1482  1483  1     ; 0.0920   Oh-H 
1484  1485  1     ; 0.0920   Oh-H 
1487  1488  1     ; 0.0920   Oh-H 
1489  1490  1     ; 0.0920   Oh-H 
1492  1493  1     ; 0.0920   Oh-H 
1494  1495  1     ; 0.0920   Oh-H 
1497  1498  1     ; 0.0920   Oh-H 
1499  1500  1     ; 0.0920   Oh-H 
1502  1503  1     ; 0.0920   Oh-H 
1504  1505  1     ; 0.0920   Oh-H 
1507  1508  1     ; 0.0920   Oh-H 
1509  1510  1     ; 0.0920   Oh-H 
1512  1513  1     ; 0.0920   Oh-H 
1514  1515  1     ; 0.0920   Oh-H 
1517  1518  1     ; 0.0920   Oh-H 
1519  1520  1     ; 0.0920   Oh-H 
1522  1523  1     ; 0.0920   Oh-H 
1524  1525  1     ; 0.0920   Oh-H 
1527  1528  1     ; 0.0920   Oh-H 
1529  1530  1     ; 0.0920   Oh-H 
1532  1533  1     ; 0.0920   Oh-H 
1534  1535  1     ; 0.0920   Oh-H 
1537  1538  1     ; 0.0920   Oh-H 
1539  1540  1     ; 0.0920   Oh-H 
1542  1543  1     ; 0.0920   Oh-H 
1544  1545  1     ; 0.0920   Oh-H 
1547  1548  1     ; 0.0920   Oh-H 
1549  1550  1     ; 0.0920   Oh-H 
1552  1553  1     ; 0.0920   Oh-H 
1554  1555  1     ; 0.0920   Oh-H 
1557  1558  1     ; 0.0920   Oh-H 
1559  1560  1     ; 0.0920   Oh-H 
1562  1563  1     ; 0.0920   Oh-H 
1564  1565  1     ; 0.0920   Oh-H 
1567  1568  1     ; 0.0920   Oh-H 
1569  1570  1     ; 0.0920   Oh-H 
1572  1573  1     ; 0.0920   Oh-H 
1574  1575  1     ; 0.0920   Oh-H 
1577  1578  1     ; 0.0920   Oh-H 
1579  1580  1     ; 0.0920   Oh-H 
1582  1583  1     ; 0.0920   Oh-H 
1584  1585  1     ; 0.0920   Oh-H 
1587  1588  1     ; 0.0920   Oh-H 
1589  1590  1     ; 0.0920   Oh-H 
1592  1593  1     ; 0.0920   Oh-H 
1594  1595  1     ; 0.0920   Oh-H 
1597  1598  1     ; 0.0920   Oh-H 
1599  1600  1     ; 0.0920   Oh-H 
1602  1603  1     ; 0.0920   Oh-H 
1604  1605  1     ; 0.0920   Oh-H 
1607  1608  1     ; 0.0920   Oh-H 
1609  1610  1     ; 0.0920   Oh-H 
1612  1613  1     ; 0.0920   Oh-H 
1614  1615  1     ; 0.0920   Oh-H 
1617  1618  1     ; 0.0920   Oh-H 
1619  1620  1     ; 0.0920   Oh-H 
1622  1623  1     ; 0.0920   Oh-H 
1624  1625  1     ; 0.0920   Oh-H 
1627  1628  1     ; 0.0920   Oh-H 
1629  1630  1     ; 0.0920   Oh-H 
1632  1633  1     ; 0.0920   Oh-H 
1634  1635  1     ; 0.0920   Oh-H 
1637  1638  1     ; 0.0920   Oh-H 
1639  1640  1     ; 0.0920   Oh-H 
1642  1643  1     ; 0.0920   Oh-H 
1644  1645  1     ; 0.0920   Oh-H 
1647  1648  1     ; 0.0920   Oh-H 
1649  1650  1     ; 0.0920   Oh-H 
1652  1653  1     ; 0.0920   Oh-H 
1654  1655  1     ; 0.0920   Oh-H 
1657  1658  1     ; 0.0920   Oh-H 
1659  1660  1     ; 0.0920   Oh-H 
1662  1663  1     ; 0.0920   Oh-H 
1664  1665  1     ; 0.0920   Oh-H 
1667  1668  1     ; 0.0920   Oh-H 
1669  1670  1     ; 0.0920   Oh-H 
1672  1673  1     ; 0.0920   Oh-H 
1674  1675  1     ; 0.0920   Oh-H 
1677  1678  1     ; 0.0920   Oh-H 
1679  1680  1     ; 0.0920   Oh-H 
1682  1683  1     ; 0.0920   Oh-H 
1684  1685  1     ; 0.0920   Oh-H 
1687  1688  1     ; 0.0920   Oh-H 
1689  1690  1     ; 0.0920   Oh-H 
1692  1693  1     ; 0.0920   Oh-H 
1694  1695  1     ; 0.0920   Oh-H 
1697  1698  1     ; 0.0920   Oh-H 
1699  1700  1     ; 0.0920   Oh-H 
1702  1703  1     ; 0.0920   Oh-H 
1704  1705  1     ; 0.0920   Oh-H 
1707  1708  1     ; 0.0920   Oh-H 
1709  1710  1     ; 0.0920   Oh-H 
1712  1713  1     ; 0.0920   Oh-H 
1714  1715  1     ; 0.0920   Oh-H 
1717  1718  1     ; 0.0920   Oh-H 
1719  1720  1     ; 0.0920   Oh-H 
1722  1723  1     ; 0.0920   Oh-H 
1724  1725  1     ; 0.0920   Oh-H 
1727  1728  1     ; 0.0920   Oh-H 
1729  1730  1     ; 0.0920   Oh-H 
1732  1733  1     ; 0.0920   Oh-H 
1734  1735  1     ; 0.0920   Oh-H 
1737  1738  1     ; 0.0920   Oh-H 
1739  1740  1     ; 0.0920   Oh-H 
1742  1743  1     ; 0.0920   Oh-H 
1744  1745  1     ; 0.0920   Oh-H 
1747  1748  1     ; 0.0920   Oh-H 
1749  1750  1     ; 0.0920   Oh-H 
1752  1753  1     ; 0.0920   Oh-H 
1754  1755  1     ; 0.0920   Oh-H 
1757  1758  1     ; 0.0920   Oh-H 
1759  1760  1     ; 0.0920   Oh-H 
1762  1763  1     ; 0.0920   Oh-H 
1764  1765  1     ; 0.0920   Oh-H 
1767  1768  1     ; 0.0920   Oh-H 
1769  1770  1     ; 0.0920   Oh-H 
1772  1773  1     ; 0.0920   Oh-H 
1774  1775  1     ; 0.0920   Oh-H 
1777  1778  1     ; 0.0920   Oh-H 
1779  1780  1     ; 0.0920   Oh-H 
1782  1783  1     ; 0.0920   Oh-H 
1784  1785  1     ; 0.0920   Oh-H 
1787  1788  1     ; 0.0920   Oh-H 
1789  1790  1     ; 0.0920   Oh-H 
1792  1793  1     ; 0.0920   Oh-H 
1794  1795  1     ; 0.0920   Oh-H 
1797  1798  1     ; 0.0920   Oh-H 
1799  1800  1     ; 0.0920   Oh-H 


[ angles ] 
; i    j   k   type   theta   force.c.
2     1     317   1     98.47    KANGLE ; Oh-Cah-Oh
2     1     357   1     98.45    KANGLE ; Oh-Cah-Oh
2     1     1444  1     81.49    KANGLE ; Oh-Cah-Oh
2     1     1484  1     81.50    KANGLE ; Oh-Cah-Oh
2     1     1799  1     179.88   KANGLE ; Oh-Cah-Oh
317   1     357   1     98.34    KANGLE ; Oh-Cah-Oh
317   1     1444  1     81.77    KANGLE ; Oh-Cah-Oh
317   1     1484  1     179.93   KANGLE ; Oh-Cah-Oh
317   1     1799  1     81.46    KANGLE ; Oh-Cah-Oh
357   1     1444  1     179.88   KANGLE ; Oh-Cah-Oh
357   1     1484  1     81.61    KANGLE ; Oh-Cah-Oh
357   1     1799  1     81.66    KANGLE ; Oh-Cah-Oh
1444  1     1484  1     98.28    KANGLE ; Oh-Cah-Oh
1444  1     1799  1     98.40    KANGLE ; Oh-Cah-Oh
1484  1     1799  1     98.58    KANGLE ; Oh-Cah-Oh
1     2     3     1     110.00   125.52   ; Cah-Oh-H
1     2     46    1     98.32    KANGLE ; Cah-Oh-Cah
1     2     51    1     98.32    KANGLE ; Cah-Oh-Cah
3     2     46    1     110.00   125.52   ; H-Oh-Cah
3     2     51    1     110.00   125.52   ; H-Oh-Cah
46    2     51    1     98.45    KANGLE ; Cah-Oh-Cah
5     4     361   1     110.00   125.52   ; H-Oh-Cah
5     4     366   1     110.00   125.52   ; H-Oh-Cah
5     4     411   1     110.00   125.52   ; H-Oh-Cah
361   4     366   1     98.36    KANGLE ; Cah-Oh-Cah
361   4     411   1     98.44    KANGLE ; Cah-Oh-Cah
366   4     411   1     98.41    KANGLE ; Cah-Oh-Cah
7     6     317   1     98.47    KANGLE ; Oh-Cah-Oh
7     6     322   1     98.44    KANGLE ; Oh-Cah-Oh
7     6     1444  1     81.49    KANGLE ; Oh-Cah-Oh
7     6     1449  1     81.51    KANGLE ; Oh-Cah-Oh
7     6     1759  1     179.76   KANGLE ; Oh-Cah-Oh
317   6     322   1     98.42    KANGLE ; Oh-Cah-Oh
317   6     1444  1     81.77    KANGLE ; Oh-Cah-Oh
317   6     1449  1     179.86   KANGLE ; Oh-Cah-Oh
317   6     1759  1     81.74    KANGLE ; Oh-Cah-Oh
322   6     1444  1     179.81   KANGLE ; Oh-Cah-Oh
322   6     1449  1     81.45    KANGLE ; Oh-Cah-Oh
322   6     1759  1     81.39    KANGLE ; Oh-Cah-Oh
1444  6     1449  1     98.36    KANGLE ; Oh-Cah-Oh
1444  6     1759  1     98.68    KANGLE ; Oh-Cah-Oh
1449  6     1759  1     98.28    KANGLE ; Oh-Cah-Oh
6     7     8     1     110.00   125.52   ; Cah-Oh-H
6     7     51    1     98.32    KANGLE ; Cah-Oh-Cah
6     7     56    1     98.29    KANGLE ; Cah-Oh-Cah
8     7     51    1     110.00   125.52   ; H-Oh-Cah
8     7     56    1     110.00   125.52   ; H-Oh-Cah
51    7     56    1     98.60    KANGLE ; Cah-Oh-Cah
10    9     366   1     110.00   125.52   ; H-Oh-Cah
10    9     371   1     110.00   125.52   ; H-Oh-Cah
10    9     416   1     110.00   125.52   ; H-Oh-Cah
366   9     371   1     98.20    KANGLE ; Cah-Oh-Cah
366   9     416   1     98.44    KANGLE ; Cah-Oh-Cah
371   9     416   1     98.44    KANGLE ; Cah-Oh-Cah
12    11    322   1     98.47    KANGLE ; Oh-Cah-Oh
12    11    327   1     98.47    KANGLE ; Oh-Cah-Oh
12    11    1449  1     81.49    KANGLE ; Oh-Cah-Oh
12    11    1454  1     81.49    KANGLE ; Oh-Cah-Oh
12    11    1764  1     179.97   KANGLE ; Oh-Cah-Oh
322   11    327   1     98.26    KANGLE ; Oh-Cah-Oh
322   11    1449  1     81.77    KANGLE ; Oh-Cah-Oh
322   11    1454  1     179.95   KANGLE ; Oh-Cah-Oh
322   11    1764  1     81.55    KANGLE ; Oh-Cah-Oh
327   11    1449  1     179.95   KANGLE ; Oh-Cah-Oh
327   11    1454  1     81.77    KANGLE ; Oh-Cah-Oh
327   11    1764  1     81.55    KANGLE ; Oh-Cah-Oh
1449  11    1454  1     98.20    KANGLE ; Oh-Cah-Oh
1449  11    1764  1     98.50    KANGLE ; Oh-Cah-Oh
1454  11    1764  1     98.50    KANGLE ; Oh-Cah-Oh
11    12    13    1     110.00   125.52   ; Cah-Oh-H
11    12    56    1     98.32    KANGLE ; Cah-Oh-Cah
11    12    61    1     98.32    KANGLE ; Cah-Oh-Cah
13    12    56    1     110.00   125.52   ; H-Oh-Cah
13    12    61    1     110.00   125.52   ; H-Oh-Cah
56    12    61    1     98.45    KANGLE ; Cah-Oh-Cah
15    14    371   1     110.00   125.52   ; H-Oh-Cah
15    14    376   1     110.00   125.52   ; H-Oh-Cah
15    14    421   1     110.00   125.52   ; H-Oh-Cah
371   14    376   1     98.20    KANGLE ; Cah-Oh-Cah
371   14    421   1     98.44    KANGLE ; Cah-Oh-Cah
376   14    421   1     98.44    KANGLE ; Cah-Oh-Cah
17    16    327   1     98.47    KANGLE ; Oh-Cah-Oh
17    16    332   1     98.44    KANGLE ; Oh-Cah-Oh
17    16    1454  1     81.49    KANGLE ; Oh-Cah-Oh
17    16    1459  1     81.51    KANGLE ; Oh-Cah-Oh
17    16    1769  1     179.76   KANGLE ; Oh-Cah-Oh
327   16    332   1     98.42    KANGLE ; Oh-Cah-Oh
327   16    1454  1     81.77    KANGLE ; Oh-Cah-Oh
327   16    1459  1     179.86   KANGLE ; Oh-Cah-Oh
327   16    1769  1     81.74    KANGLE ; Oh-Cah-Oh
332   16    1454  1     179.81   KANGLE ; Oh-Cah-Oh
332   16    1459  1     81.45    KANGLE ; Oh-Cah-Oh
332   16    1769  1     81.39    KANGLE ; Oh-Cah-Oh
1454  16    1459  1     98.36    KANGLE ; Oh-Cah-Oh
1454  16    1769  1     98.68    KANGLE ; Oh-Cah-Oh
1459  16    1769  1     98.28    KANGLE ; Oh-Cah-Oh
16    17    18    1     110.00   125.52   ; Cah-Oh-H
16    17    61    1     98.32    KANGLE ; Cah-Oh-Cah
16    17    66    1     98.29    KANGLE ; Cah-Oh-Cah
18    17    61    1     110.00   125.52   ; H-Oh-Cah
18    17    66    1     110.00   125.52   ; H-Oh-Cah
61    17    66    1     98.60    KANGLE ; Cah-Oh-Cah
20    19    376   1     110.00   125.52   ; H-Oh-Cah
20    19    381   1     110.00   125.52   ; H-Oh-Cah
20    19    426   1     110.00   125.52   ; H-Oh-Cah
376   19    381   1     98.36    KANGLE ; Cah-Oh-Cah
376   19    426   1     98.41    KANGLE ; Cah-Oh-Cah
381   19    426   1     98.44    KANGLE ; Cah-Oh-Cah
22    21    332   1     98.47    KANGLE ; Oh-Cah-Oh
22    21    337   1     98.47    KANGLE ; Oh-Cah-Oh
22    21    1459  1     81.49    KANGLE ; Oh-Cah-Oh
22    21    1464  1     81.49    KANGLE ; Oh-Cah-Oh
22    21    1774  1     179.97   KANGLE ; Oh-Cah-Oh
332   21    337   1     98.26    KANGLE ; Oh-Cah-Oh
332   21    1459  1     81.77    KANGLE ; Oh-Cah-Oh
332   21    1464  1     179.95   KANGLE ; Oh-Cah-Oh
332   21    1774  1     81.55    KANGLE ; Oh-Cah-Oh
337   21    1459  1     179.95   KANGLE ; Oh-Cah-Oh
337   21    1464  1     81.77    KANGLE ; Oh-Cah-Oh
337   21    1774  1     81.55    KANGLE ; Oh-Cah-Oh
1459  21    1464  1     98.20    KANGLE ; Oh-Cah-Oh
1459  21    1774  1     98.50    KANGLE ; Oh-Cah-Oh
1464  21    1774  1     98.50    KANGLE ; Oh-Cah-Oh
21    22    23    1     110.00   125.52   ; Cah-Oh-H
21    22    66    1     98.32    KANGLE ; Cah-Oh-Cah
21    22    71    1     98.32    KANGLE ; Cah-Oh-Cah
23    22    66    1     110.00   125.52   ; H-Oh-Cah
23    22    71    1     110.00   125.52   ; H-Oh-Cah
66    22    71    1     98.45    KANGLE ; Cah-Oh-Cah
25    24    381   1     110.00   125.52   ; H-Oh-Cah
25    24    386   1     110.00   125.52   ; H-Oh-Cah
25    24    431   1     110.00   125.52   ; H-Oh-Cah
381   24    386   1     98.20    KANGLE ; Cah-Oh-Cah
381   24    431   1     98.44    KANGLE ; Cah-Oh-Cah
386   24    431   1     98.44    KANGLE ; Cah-Oh-Cah
27    26    337   1     98.47    KANGLE ; Oh-Cah-Oh
27    26    342   1     98.44    KANGLE ; Oh-Cah-Oh
27    26    1464  1     81.49    KANGLE ; Oh-Cah-Oh
27    26    1469  1     81.51    KANGLE ; Oh-Cah-Oh
27    26    1779  1     179.76   KANGLE ; Oh-Cah-Oh
337   26    342   1     98.42    KANGLE ; Oh-Cah-Oh
337   26    1464  1     81.77    KANGLE ; Oh-Cah-Oh
337   26    1469  1     179.86   KANGLE ; Oh-Cah-Oh
337   26    1779  1     81.74    KANGLE ; Oh-Cah-Oh
342   26    1464  1     179.81   KANGLE ; Oh-Cah-Oh
342   26    1469  1     81.45    KANGLE ; Oh-Cah-Oh
342   26    1779  1     81.39    KANGLE ; Oh-Cah-Oh
1464  26    1469  1     98.36    KANGLE ; Oh-Cah-Oh
1464  26    1779  1     98.68    KANGLE ; Oh-Cah-Oh
1469  26    1779  1     98.28    KANGLE ; Oh-Cah-Oh
26    27    28    1     110.00   125.52   ; Cah-Oh-H
26    27    71    1     98.32    KANGLE ; Cah-Oh-Cah
26    27    76    1     98.29    KANGLE ; Cah-Oh-Cah
28    27    71    1     110.00   125.52   ; H-Oh-Cah
28    27    76    1     110.00   125.52   ; H-Oh-Cah
71    27    76    1     98.60    KANGLE ; Cah-Oh-Cah
30    29    386   1     110.00   125.52   ; H-Oh-Cah
30    29    391   1     110.00   125.52   ; H-Oh-Cah
30    29    436   1     110.00   125.52   ; H-Oh-Cah
386   29    391   1     98.36    KANGLE ; Cah-Oh-Cah
386   29    436   1     98.41    KANGLE ; Cah-Oh-Cah
391   29    436   1     98.44    KANGLE ; Cah-Oh-Cah
32    31    342   1     98.47    KANGLE ; Oh-Cah-Oh
32    31    347   1     98.47    KANGLE ; Oh-Cah-Oh
32    31    1469  1     81.49    KANGLE ; Oh-Cah-Oh
32    31    1474  1     81.49    KANGLE ; Oh-Cah-Oh
32    31    1784  1     179.97   KANGLE ; Oh-Cah-Oh
342   31    347   1     98.26    KANGLE ; Oh-Cah-Oh
342   31    1469  1     81.77    KANGLE ; Oh-Cah-Oh
342   31    1474  1     179.95   KANGLE ; Oh-Cah-Oh
342   31    1784  1     81.55    KANGLE ; Oh-Cah-Oh
347   31    1469  1     179.95   KANGLE ; Oh-Cah-Oh
347   31    1474  1     81.77    KANGLE ; Oh-Cah-Oh
347   31    1784  1     81.55    KANGLE ; Oh-Cah-Oh
1469  31    1474  1     98.20    KANGLE ; Oh-Cah-Oh
1469  31    1784  1     98.50    KANGLE ; Oh-Cah-Oh
1474  31    1784  1     98.50    KANGLE ; Oh-Cah-Oh
31    32    33    1     110.00   125.52   ; Cah-Oh-H
31    32    76    1     98.32    KANGLE ; Cah-Oh-Cah
31    32    81    1     98.32    KANGLE ; Cah-Oh-Cah
33    32    76    1     110.00   125.52   ; H-Oh-Cah
33    32    81    1     110.00   125.52   ; H-Oh-Cah
76    32    81    1     98.45    KANGLE ; Cah-Oh-Cah
35    34    391   1     110.00   125.52   ; H-Oh-Cah
35    34    396   1     110.00   125.52   ; H-Oh-Cah
35    34    441   1     110.00   125.52   ; H-Oh-Cah
391   34    396   1     98.36    KANGLE ; Cah-Oh-Cah
391   34    441   1     98.44    KANGLE ; Cah-Oh-Cah
396   34    441   1     98.41    KANGLE ; Cah-Oh-Cah
37    36    347   1     98.25    KANGLE ; Oh-Cah-Oh
37    36    352   1     98.65    KANGLE ; Oh-Cah-Oh
37    36    1474  1     81.33    KANGLE ; Oh-Cah-Oh
37    36    1479  1     81.67    KANGLE ; Oh-Cah-Oh
37    36    1789  1     179.76   KANGLE ; Oh-Cah-Oh
347   36    352   1     98.42    KANGLE ; Oh-Cah-Oh
347   36    1474  1     81.45    KANGLE ; Oh-Cah-Oh
347   36    1479  1     179.81   KANGLE ; Oh-Cah-Oh
347   36    1789  1     81.58    KANGLE ; Oh-Cah-Oh
352   36    1474  1     179.86   KANGLE ; Oh-Cah-Oh
352   36    1479  1     81.77    KANGLE ; Oh-Cah-Oh
352   36    1789  1     81.55    KANGLE ; Oh-Cah-Oh
1474  36    1479  1     98.36    KANGLE ; Oh-Cah-Oh
1474  36    1789  1     98.47    KANGLE ; Oh-Cah-Oh
1479  36    1789  1     98.50    KANGLE ; Oh-Cah-Oh
36    37    38    1     110.00   125.52   ; Cah-Oh-H
36    37    81    1     98.50    KANGLE ; Cah-Oh-Cah
36    37    86    1     98.10    KANGLE ; Cah-Oh-Cah
38    37    81    1     110.00   125.52   ; H-Oh-Cah
38    37    86    1     110.00   125.52   ; H-Oh-Cah
81    37    86    1     98.60    KANGLE ; Cah-Oh-Cah
40    39    396   1     110.00   125.52   ; H-Oh-Cah
40    39    401   1     110.00   125.52   ; H-Oh-Cah
40    39    446   1     110.00   125.52   ; H-Oh-Cah
396   39    401   1     98.20    KANGLE ; Cah-Oh-Cah
396   39    446   1     98.44    KANGLE ; Cah-Oh-Cah
401   39    446   1     98.44    KANGLE ; Cah-Oh-Cah
42    41    352   1     98.47    KANGLE ; Oh-Cah-Oh
42    41    357   1     98.47    KANGLE ; Oh-Cah-Oh
42    41    1479  1     81.49    KANGLE ; Oh-Cah-Oh
42    41    1484  1     81.49    KANGLE ; Oh-Cah-Oh
42    41    1794  1     179.97   KANGLE ; Oh-Cah-Oh
352   41    357   1     98.26    KANGLE ; Oh-Cah-Oh
352   41    1479  1     81.77    KANGLE ; Oh-Cah-Oh
352   41    1484  1     179.95   KANGLE ; Oh-Cah-Oh
352   41    1794  1     81.55    KANGLE ; Oh-Cah-Oh
357   41    1479  1     179.95   KANGLE ; Oh-Cah-Oh
357   41    1484  1     81.77    KANGLE ; Oh-Cah-Oh
357   41    1794  1     81.55    KANGLE ; Oh-Cah-Oh
1479  41    1484  1     98.20    KANGLE ; Oh-Cah-Oh
1479  41    1794  1     98.50    KANGLE ; Oh-Cah-Oh
1484  41    1794  1     98.50    KANGLE ; Oh-Cah-Oh
41    42    43    1     110.00   125.52   ; Cah-Oh-H
41    42    46    1     98.30    KANGLE ; Cah-Oh-Cah
41    42    86    1     98.32    KANGLE ; Cah-Oh-Cah
43    42    46    1     110.00   125.52   ; H-Oh-Cah
43    42    86    1     110.00   125.52   ; H-Oh-Cah
46    42    86    1     98.53    KANGLE ; Cah-Oh-Cah
45    44    361   1     110.00   125.52   ; H-Oh-Cah
45    44    401   1     110.00   125.52   ; H-Oh-Cah
45    44    406   1     110.00   125.52   ; H-Oh-Cah
361   44    401   1     98.28    KANGLE ; Cah-Oh-Cah
361   44    406   1     98.33    KANGLE ; Cah-Oh-Cah
401   44    406   1     98.53    KANGLE ; Cah-Oh-Cah
2     46    42    1     98.53    KANGLE ; Oh-Cah-Oh
2     46    47    1     98.32    KANGLE ; Oh-Cah-Oh
2     46    1484  1     81.85    KANGLE ; Oh-Cah-Oh
2     46    1489  1     81.68    KANGLE ; Oh-Cah-Oh
2     46    1529  1     179.81   KANGLE ; Oh-Cah-Oh
42    46    47    1     98.30    KANGLE ; Oh-Cah-Oh
42    46    1484  1     81.68    KANGLE ; Oh-Cah-Oh
42    46    1489  1     179.73   KANGLE ; Oh-Cah-Oh
42    46    1529  1     81.52    KANGLE ; Oh-Cah-Oh
47    46    1484  1     179.83   KANGLE ; Oh-Cah-Oh
47    46    1489  1     81.49    KANGLE ; Oh-Cah-Oh
47    46    1529  1     81.50    KANGLE ; Oh-Cah-Oh
1484  46    1489  1     98.53    KANGLE ; Oh-Cah-Oh
1484  46    1529  1     98.33    KANGLE ; Oh-Cah-Oh
1489  46    1529  1     98.28    KANGLE ; Oh-Cah-Oh
46    47    48    1     110.00   125.52   ; Cah-Oh-H
46    47    91    1     98.51    KANGLE ; Cah-Oh-Cah
46    47    96    1     98.51    KANGLE ; Cah-Oh-Cah
48    47    91    1     110.00   125.52   ; H-Oh-Cah
48    47    96    1     110.00   125.52   ; H-Oh-Cah
91    47    96    1     98.20    KANGLE ; Cah-Oh-Cah
50    49    406   1     110.00   125.52   ; H-Oh-Cah
50    49    411   1     110.00   125.52   ; H-Oh-Cah
50    49    456   1     110.00   125.52   ; H-Oh-Cah
406   49    411   1     98.20    KANGLE ; Cah-Oh-Cah
406   49    456   1     98.51    KANGLE ; Cah-Oh-Cah
411   49    456   1     98.51    KANGLE ; Cah-Oh-Cah
2     51    7     1     98.45    KANGLE ; Oh-Cah-Oh
2     51    52    1     98.32    KANGLE ; Oh-Cah-Oh
2     51    1444  1     81.76    KANGLE ; Oh-Cah-Oh
2     51    1489  1     81.68    KANGLE ; Oh-Cah-Oh
2     51    1494  1     179.82   KANGLE ; Oh-Cah-Oh
7     51    52    1     98.32    KANGLE ; Oh-Cah-Oh
7     51    1444  1     81.76    KANGLE ; Oh-Cah-Oh
7     51    1489  1     179.78   KANGLE ; Oh-Cah-Oh
7     51    1494  1     81.52    KANGLE ; Oh-Cah-Oh
52    51    1444  1     179.88   KANGLE ; Oh-Cah-Oh
52    51    1489  1     81.49    KANGLE ; Oh-Cah-Oh
52    51    1494  1     81.51    KANGLE ; Oh-Cah-Oh
1444  51    1489  1     98.44    KANGLE ; Oh-Cah-Oh
1444  51    1494  1     98.41    KANGLE ; Oh-Cah-Oh
1489  51    1494  1     98.36    KANGLE ; Oh-Cah-Oh
51    52    53    1     110.00   125.52   ; Cah-Oh-H
51    52    96    1     98.51    KANGLE ; Cah-Oh-Cah
51    52    101   1     98.49    KANGLE ; Cah-Oh-Cah
53    52    96    1     110.00   125.52   ; H-Oh-Cah
53    52    101   1     110.00   125.52   ; H-Oh-Cah
96    52    101   1     98.36    KANGLE ; Cah-Oh-Cah
55    54    411   1     110.00   125.52   ; H-Oh-Cah
55    54    416   1     110.00   125.52   ; H-Oh-Cah
55    54    461   1     110.00   125.52   ; H-Oh-Cah
411   54    416   1     98.36    KANGLE ; Cah-Oh-Cah
411   54    461   1     98.49    KANGLE ; Cah-Oh-Cah
416   54    461   1     98.51    KANGLE ; Cah-Oh-Cah
7     56    12    1     98.60    KANGLE ; Oh-Cah-Oh
7     56    57    1     98.29    KANGLE ; Oh-Cah-Oh
7     56    1449  1     81.79    KANGLE ; Oh-Cah-Oh
7     56    1494  1     81.52    KANGLE ; Oh-Cah-Oh
7     56    1499  1     179.67   KANGLE ; Oh-Cah-Oh
12    56    57    1     98.32    KANGLE ; Oh-Cah-Oh
12    56    1449  1     81.76    KANGLE ; Oh-Cah-Oh
12    56    1494  1     179.78   KANGLE ; Oh-Cah-Oh
12    56    1499  1     81.68    KANGLE ; Oh-Cah-Oh
57    56    1449  1     179.88   KANGLE ; Oh-Cah-Oh
57    56    1494  1     81.49    KANGLE ; Oh-Cah-Oh
57    56    1499  1     81.49    KANGLE ; Oh-Cah-Oh
1449  56    1494  1     98.44    KANGLE ; Oh-Cah-Oh
1449  56    1499  1     98.44    KANGLE ; Oh-Cah-Oh
1494  56    1499  1     98.20    KANGLE ; Oh-Cah-Oh
56    57    58    1     110.00   125.52   ; Cah-Oh-H
56    57    101   1     98.51    KANGLE ; Cah-Oh-Cah
56    57    106   1     98.51    KANGLE ; Cah-Oh-Cah
58    57    101   1     110.00   125.52   ; H-Oh-Cah
58    57    106   1     110.00   125.52   ; H-Oh-Cah
101   57    106   1     98.20    KANGLE ; Cah-Oh-Cah
60    59    416   1     110.00   125.52   ; H-Oh-Cah
60    59    421   1     110.00   125.52   ; H-Oh-Cah
60    59    466   1     110.00   125.52   ; H-Oh-Cah
416   59    421   1     98.20    KANGLE ; Cah-Oh-Cah
416   59    466   1     98.51    KANGLE ; Cah-Oh-Cah
421   59    466   1     98.51    KANGLE ; Cah-Oh-Cah
12    61    17    1     98.45    KANGLE ; Oh-Cah-Oh
12    61    62    1     98.32    KANGLE ; Oh-Cah-Oh
12    61    1454  1     81.76    KANGLE ; Oh-Cah-Oh
12    61    1499  1     81.68    KANGLE ; Oh-Cah-Oh
12    61    1504  1     179.82   KANGLE ; Oh-Cah-Oh
17    61    62    1     98.32    KANGLE ; Oh-Cah-Oh
17    61    1454  1     81.76    KANGLE ; Oh-Cah-Oh
17    61    1499  1     179.78   KANGLE ; Oh-Cah-Oh
17    61    1504  1     81.52    KANGLE ; Oh-Cah-Oh
62    61    1454  1     179.88   KANGLE ; Oh-Cah-Oh
62    61    1499  1     81.49    KANGLE ; Oh-Cah-Oh
62    61    1504  1     81.51    KANGLE ; Oh-Cah-Oh
1454  61    1499  1     98.44    KANGLE ; Oh-Cah-Oh
1454  61    1504  1     98.41    KANGLE ; Oh-Cah-Oh
1499  61    1504  1     98.36    KANGLE ; Oh-Cah-Oh
61    62    63    1     110.00   125.52   ; Cah-Oh-H
61    62    106   1     98.51    KANGLE ; Cah-Oh-Cah
61    62    111   1     98.49    KANGLE ; Cah-Oh-Cah
63    62    106   1     110.00   125.52   ; H-Oh-Cah
63    62    111   1     110.00   125.52   ; H-Oh-Cah
106   62    111   1     98.36    KANGLE ; Cah-Oh-Cah
65    64    421   1     110.00   125.52   ; H-Oh-Cah
65    64    426   1     110.00   125.52   ; H-Oh-Cah
65    64    471   1     110.00   125.52   ; H-Oh-Cah
421   64    426   1     98.36    KANGLE ; Cah-Oh-Cah
421   64    471   1     98.49    KANGLE ; Cah-Oh-Cah
426   64    471   1     98.51    KANGLE ; Cah-Oh-Cah
17    66    22    1     98.60    KANGLE ; Oh-Cah-Oh
17    66    67    1     98.29    KANGLE ; Oh-Cah-Oh
17    66    1459  1     81.79    KANGLE ; Oh-Cah-Oh
17    66    1504  1     81.52    KANGLE ; Oh-Cah-Oh
17    66    1509  1     179.67   KANGLE ; Oh-Cah-Oh
22    66    67    1     98.32    KANGLE ; Oh-Cah-Oh
22    66    1459  1     81.76    KANGLE ; Oh-Cah-Oh
22    66    1504  1     179.78   KANGLE ; Oh-Cah-Oh
22    66    1509  1     81.68    KANGLE ; Oh-Cah-Oh
67    66    1459  1     179.88   KANGLE ; Oh-Cah-Oh
67    66    1504  1     81.49    KANGLE ; Oh-Cah-Oh
67    66    1509  1     81.49    KANGLE ; Oh-Cah-Oh
1459  66    1504  1     98.44    KANGLE ; Oh-Cah-Oh
1459  66    1509  1     98.44    KANGLE ; Oh-Cah-Oh
1504  66    1509  1     98.20    KANGLE ; Oh-Cah-Oh
66    67    68    1     110.00   125.52   ; Cah-Oh-H
66    67    111   1     98.51    KANGLE ; Cah-Oh-Cah
66    67    116   1     98.51    KANGLE ; Cah-Oh-Cah
68    67    111   1     110.00   125.52   ; H-Oh-Cah
68    67    116   1     110.00   125.52   ; H-Oh-Cah
111   67    116   1     98.20    KANGLE ; Cah-Oh-Cah
70    69    426   1     110.00   125.52   ; H-Oh-Cah
70    69    431   1     110.00   125.52   ; H-Oh-Cah
70    69    476   1     110.00   125.52   ; H-Oh-Cah
426   69    431   1     98.20    KANGLE ; Cah-Oh-Cah
426   69    476   1     98.51    KANGLE ; Cah-Oh-Cah
431   69    476   1     98.51    KANGLE ; Cah-Oh-Cah
22    71    27    1     98.45    KANGLE ; Oh-Cah-Oh
22    71    72    1     98.32    KANGLE ; Oh-Cah-Oh
22    71    1464  1     81.76    KANGLE ; Oh-Cah-Oh
22    71    1509  1     81.68    KANGLE ; Oh-Cah-Oh
22    71    1514  1     179.82   KANGLE ; Oh-Cah-Oh
27    71    72    1     98.32    KANGLE ; Oh-Cah-Oh
27    71    1464  1     81.76    KANGLE ; Oh-Cah-Oh
27    71    1509  1     179.78   KANGLE ; Oh-Cah-Oh
27    71    1514  1     81.52    KANGLE ; Oh-Cah-Oh
72    71    1464  1     179.88   KANGLE ; Oh-Cah-Oh
72    71    1509  1     81.49    KANGLE ; Oh-Cah-Oh
72    71    1514  1     81.51    KANGLE ; Oh-Cah-Oh
1464  71    1509  1     98.44    KANGLE ; Oh-Cah-Oh
1464  71    1514  1     98.41    KANGLE ; Oh-Cah-Oh
1509  71    1514  1     98.36    KANGLE ; Oh-Cah-Oh
71    72    73    1     110.00   125.52   ; Cah-Oh-H
71    72    116   1     98.51    KANGLE ; Cah-Oh-Cah
71    72    121   1     98.51    KANGLE ; Cah-Oh-Cah
73    72    116   1     110.00   125.52   ; H-Oh-Cah
73    72    121   1     110.00   125.52   ; H-Oh-Cah
116   72    121   1     98.20    KANGLE ; Cah-Oh-Cah
75    74    431   1     110.00   125.52   ; H-Oh-Cah
75    74    436   1     110.00   125.52   ; H-Oh-Cah
75    74    481   1     110.00   125.52   ; H-Oh-Cah
431   74    436   1     98.36    KANGLE ; Cah-Oh-Cah
431   74    481   1     98.30    KANGLE ; Cah-Oh-Cah
436   74    481   1     98.70    KANGLE ; Cah-Oh-Cah
27    76    32    1     98.60    KANGLE ; Oh-Cah-Oh
27    76    77    1     98.29    KANGLE ; Oh-Cah-Oh
27    76    1469  1     81.79    KANGLE ; Oh-Cah-Oh
27    76    1514  1     81.52    KANGLE ; Oh-Cah-Oh
27    76    1519  1     179.67   KANGLE ; Oh-Cah-Oh
32    76    77    1     98.32    KANGLE ; Oh-Cah-Oh
32    76    1469  1     81.76    KANGLE ; Oh-Cah-Oh
32    76    1514  1     179.78   KANGLE ; Oh-Cah-Oh
32    76    1519  1     81.68    KANGLE ; Oh-Cah-Oh
77    76    1469  1     179.88   KANGLE ; Oh-Cah-Oh
77    76    1514  1     81.49    KANGLE ; Oh-Cah-Oh
77    76    1519  1     81.49    KANGLE ; Oh-Cah-Oh
1469  76    1514  1     98.44    KANGLE ; Oh-Cah-Oh
1469  76    1519  1     98.44    KANGLE ; Oh-Cah-Oh
1514  76    1519  1     98.20    KANGLE ; Oh-Cah-Oh
76    77    78    1     110.00   125.52   ; Cah-Oh-H
76    77    121   1     98.49    KANGLE ; Cah-Oh-Cah
76    77    126   1     98.51    KANGLE ; Cah-Oh-Cah
78    77    121   1     110.00   125.52   ; H-Oh-Cah
78    77    126   1     110.00   125.52   ; H-Oh-Cah
121   77    126   1     98.36    KANGLE ; Cah-Oh-Cah
80    79    436   1     110.00   125.52   ; H-Oh-Cah
80    79    441   1     110.00   125.52   ; H-Oh-Cah
80    79    486   1     110.00   125.52   ; H-Oh-Cah
436   79    441   1     98.20    KANGLE ; Cah-Oh-Cah
436   79    486   1     98.51    KANGLE ; Cah-Oh-Cah
441   79    486   1     98.51    KANGLE ; Cah-Oh-Cah
32    81    37    1     98.45    KANGLE ; Oh-Cah-Oh
32    81    82    1     98.32    KANGLE ; Oh-Cah-Oh
32    81    1474  1     81.76    KANGLE ; Oh-Cah-Oh
32    81    1519  1     81.68    KANGLE ; Oh-Cah-Oh
32    81    1524  1     179.82   KANGLE ; Oh-Cah-Oh
37    81    82    1     98.32    KANGLE ; Oh-Cah-Oh
37    81    1474  1     81.76    KANGLE ; Oh-Cah-Oh
37    81    1519  1     179.78   KANGLE ; Oh-Cah-Oh
37    81    1524  1     81.52    KANGLE ; Oh-Cah-Oh
82    81    1474  1     179.88   KANGLE ; Oh-Cah-Oh
82    81    1519  1     81.49    KANGLE ; Oh-Cah-Oh
82    81    1524  1     81.51    KANGLE ; Oh-Cah-Oh
1474  81    1519  1     98.44    KANGLE ; Oh-Cah-Oh
1474  81    1524  1     98.41    KANGLE ; Oh-Cah-Oh
1519  81    1524  1     98.36    KANGLE ; Oh-Cah-Oh
81    82    83    1     110.00   125.52   ; Cah-Oh-H
81    82    126   1     98.51    KANGLE ; Cah-Oh-Cah
81    82    131   1     98.49    KANGLE ; Cah-Oh-Cah
83    82    126   1     110.00   125.52   ; H-Oh-Cah
83    82    131   1     110.00   125.52   ; H-Oh-Cah
126   82    131   1     98.36    KANGLE ; Cah-Oh-Cah
85    84    441   1     110.00   125.52   ; H-Oh-Cah
85    84    446   1     110.00   125.52   ; H-Oh-Cah
85    84    491   1     110.00   125.52   ; H-Oh-Cah
441   84    446   1     98.36    KANGLE ; Cah-Oh-Cah
441   84    491   1     98.49    KANGLE ; Cah-Oh-Cah
446   84    491   1     98.51    KANGLE ; Cah-Oh-Cah
37    86    42    1     98.60    KANGLE ; Oh-Cah-Oh
37    86    87    1     98.29    KANGLE ; Oh-Cah-Oh
37    86    1479  1     81.79    KANGLE ; Oh-Cah-Oh
37    86    1524  1     81.52    KANGLE ; Oh-Cah-Oh
37    86    1529  1     179.67   KANGLE ; Oh-Cah-Oh
42    86    87    1     98.32    KANGLE ; Oh-Cah-Oh
42    86    1479  1     81.76    KANGLE ; Oh-Cah-Oh
42    86    1524  1     179.78   KANGLE ; Oh-Cah-Oh
42    86    1529  1     81.68    KANGLE ; Oh-Cah-Oh
87    86    1479  1     179.88   KANGLE ; Oh-Cah-Oh
87    86    1524  1     81.49    KANGLE ; Oh-Cah-Oh
87    86    1529  1     81.49    KANGLE ; Oh-Cah-Oh
1479  86    1524  1     98.44    KANGLE ; Oh-Cah-Oh
1479  86    1529  1     98.44    KANGLE ; Oh-Cah-Oh
1524  86    1529  1     98.20    KANGLE ; Oh-Cah-Oh
86    87    88    1     110.00   125.52   ; Cah-Oh-H
86    87    91    1     98.50    KANGLE ; Cah-Oh-Cah
86    87    131   1     98.51    KANGLE ; Cah-Oh-Cah
88    87    91    1     110.00   125.52   ; H-Oh-Cah
88    87    131   1     110.00   125.52   ; H-Oh-Cah
91    87    131   1     98.28    KANGLE ; Cah-Oh-Cah
90    89    406   1     110.00   125.52   ; H-Oh-Cah
90    89    446   1     110.00   125.52   ; H-Oh-Cah
90    89    451   1     110.00   125.52   ; H-Oh-Cah
406   89    446   1     98.28    KANGLE ; Cah-Oh-Cah
406   89    451   1     98.41    KANGLE ; Cah-Oh-Cah
446   89    451   1     98.61    KANGLE ; Cah-Oh-Cah
47    91    87    1     98.28    KANGLE ; Oh-Cah-Oh
47    91    92    1     98.70    KANGLE ; Oh-Cah-Oh
47    91    1529  1     81.58    KANGLE ; Oh-Cah-Oh
47    91    1534  1     81.68    KANGLE ; Oh-Cah-Oh
47    91    1574  1     179.73   KANGLE ; Oh-Cah-Oh
87    91    92    1     98.32    KANGLE ; Oh-Cah-Oh
87    91    1529  1     81.41    KANGLE ; Oh-Cah-Oh
87    91    1534  1     179.81   KANGLE ; Oh-Cah-Oh
87    91    1574  1     81.52    KANGLE ; Oh-Cah-Oh
92    91    1529  1     179.64   KANGLE ; Oh-Cah-Oh
92    91    1534  1     81.87    KANGLE ; Oh-Cah-Oh
92    91    1574  1     81.51    KANGLE ; Oh-Cah-Oh
1529  91    1534  1     98.41    KANGLE ; Oh-Cah-Oh
1529  91    1574  1     98.21    KANGLE ; Oh-Cah-Oh
1534  91    1574  1     98.53    KANGLE ; Oh-Cah-Oh
91    92    93    1     110.00   125.52   ; Cah-Oh-H
91    92    136   1     98.50    KANGLE ; Cah-Oh-Cah
91    92    141   1     98.10    KANGLE ; Cah-Oh-Cah
93    92    136   1     110.00   125.52   ; H-Oh-Cah
93    92    141   1     110.00   125.52   ; H-Oh-Cah
136   92    141   1     98.60    KANGLE ; Cah-Oh-Cah
95    94    451   1     110.00   125.52   ; H-Oh-Cah
95    94    456   1     110.00   125.52   ; H-Oh-Cah
95    94    501   1     110.00   125.52   ; H-Oh-Cah
451   94    456   1     98.45    KANGLE ; Cah-Oh-Cah
451   94    501   1     98.32    KANGLE ; Cah-Oh-Cah
456   94    501   1     98.32    KANGLE ; Cah-Oh-Cah
47    96    52    1     98.20    KANGLE ; Oh-Cah-Oh
47    96    97    1     98.51    KANGLE ; Oh-Cah-Oh
47    96    1489  1     81.49    KANGLE ; Oh-Cah-Oh
47    96    1534  1     81.68    KANGLE ; Oh-Cah-Oh
47    96    1539  1     179.78   KANGLE ; Oh-Cah-Oh
52    96    97    1     98.51    KANGLE ; Oh-Cah-Oh
52    96    1489  1     81.49    KANGLE ; Oh-Cah-Oh
52    96    1534  1     179.78   KANGLE ; Oh-Cah-Oh
52    96    1539  1     81.68    KANGLE ; Oh-Cah-Oh
97    96    1489  1     180.00   KANGLE ; Oh-Cah-Oh
97    96    1534  1     81.68    KANGLE ; Oh-Cah-Oh
97    96    1539  1     81.68    KANGLE ; Oh-Cah-Oh
1489  96    1534  1     98.32    KANGLE ; Oh-Cah-Oh
1489  96    1539  1     98.32    KANGLE ; Oh-Cah-Oh
1534  96    1539  1     98.45    KANGLE ; Oh-Cah-Oh
96    97    98    1     110.00   125.52   ; Cah-Oh-H
96    97    141   1     98.32    KANGLE ; Cah-Oh-Cah
96    97    146   1     98.32    KANGLE ; Cah-Oh-Cah
98    97    141   1     110.00   125.52   ; H-Oh-Cah
98    97    146   1     110.00   125.52   ; H-Oh-Cah
141   97    146   1     98.45    KANGLE ; Cah-Oh-Cah
100   99    456   1     110.00   125.52   ; H-Oh-Cah
100   99    461   1     110.00   125.52   ; H-Oh-Cah
100   99    506   1     110.00   125.52   ; H-Oh-Cah
456   99    461   1     98.60    KANGLE ; Cah-Oh-Cah
456   99    506   1     98.32    KANGLE ; Cah-Oh-Cah
461   99    506   1     98.29    KANGLE ; Cah-Oh-Cah
52    101   57    1     98.36    KANGLE ; Oh-Cah-Oh
52    101   102   1     98.30    KANGLE ; Oh-Cah-Oh
52    101   1494  1     81.51    KANGLE ; Oh-Cah-Oh
52    101   1539  1     81.36    KANGLE ; Oh-Cah-Oh
52    101   1544  1     179.82   KANGLE ; Oh-Cah-Oh
57    101   102   1     98.70    KANGLE ; Oh-Cah-Oh
57    101   1494  1     81.49    KANGLE ; Oh-Cah-Oh
57    101   1539  1     179.67   KANGLE ; Oh-Cah-Oh
57    101   1544  1     81.68    KANGLE ; Oh-Cah-Oh
102   101   1494  1     179.76   KANGLE ; Oh-Cah-Oh
102   101   1539  1     81.52    KANGLE ; Oh-Cah-Oh
102   101   1544  1     81.87    KANGLE ; Oh-Cah-Oh
1494  101   1539  1     98.29    KANGLE ; Oh-Cah-Oh
1494  101   1544  1     98.32    KANGLE ; Oh-Cah-Oh
1539  101   1544  1     98.60    KANGLE ; Oh-Cah-Oh
101   102   103   1     110.00   125.52   ; Cah-Oh-H
101   102   146   1     98.50    KANGLE ; Cah-Oh-Cah
101   102   151   1     98.10    KANGLE ; Cah-Oh-Cah
103   102   146   1     110.00   125.52   ; H-Oh-Cah
103   102   151   1     110.00   125.52   ; H-Oh-Cah
146   102   151   1     98.60    KANGLE ; Cah-Oh-Cah
105   104   461   1     110.00   125.52   ; H-Oh-Cah
105   104   466   1     110.00   125.52   ; H-Oh-Cah
105   104   511   1     110.00   125.52   ; H-Oh-Cah
461   104   466   1     98.45    KANGLE ; Cah-Oh-Cah
461   104   511   1     98.32    KANGLE ; Cah-Oh-Cah
466   104   511   1     98.32    KANGLE ; Cah-Oh-Cah
57    106   62    1     98.20    KANGLE ; Oh-Cah-Oh
57    106   107   1     98.51    KANGLE ; Oh-Cah-Oh
57    106   1499  1     81.49    KANGLE ; Oh-Cah-Oh
57    106   1544  1     81.68    KANGLE ; Oh-Cah-Oh
57    106   1549  1     179.78   KANGLE ; Oh-Cah-Oh
62    106   107   1     98.51    KANGLE ; Oh-Cah-Oh
62    106   1499  1     81.49    KANGLE ; Oh-Cah-Oh
62    106   1544  1     179.78   KANGLE ; Oh-Cah-Oh
62    106   1549  1     81.68    KANGLE ; Oh-Cah-Oh
107   106   1499  1     180.00   KANGLE ; Oh-Cah-Oh
107   106   1544  1     81.68    KANGLE ; Oh-Cah-Oh
107   106   1549  1     81.68    KANGLE ; Oh-Cah-Oh
1499  106   1544  1     98.32    KANGLE ; Oh-Cah-Oh
1499  106   1549  1     98.32    KANGLE ; Oh-Cah-Oh
1544  106   1549  1     98.45    KANGLE ; Oh-Cah-Oh
106   107   108   1     110.00   125.52   ; Cah-Oh-H
106   107   151   1     98.32    KANGLE ; Cah-Oh-Cah
106   107   156   1     98.32    KANGLE ; Cah-Oh-Cah
108   107   151   1     110.00   125.52   ; H-Oh-Cah
108   107   156   1     110.00   125.52   ; H-Oh-Cah
151   107   156   1     98.45    KANGLE ; Cah-Oh-Cah
110   109   466   1     110.00   125.52   ; H-Oh-Cah
110   109   471   1     110.00   125.52   ; H-Oh-Cah
110   109   516   1     110.00   125.52   ; H-Oh-Cah
466   109   471   1     98.60    KANGLE ; Cah-Oh-Cah
466   109   516   1     98.32    KANGLE ; Cah-Oh-Cah
471   109   516   1     98.29    KANGLE ; Cah-Oh-Cah
62    111   67    1     98.36    KANGLE ; Oh-Cah-Oh
62    111   112   1     98.30    KANGLE ; Oh-Cah-Oh
62    111   1504  1     81.51    KANGLE ; Oh-Cah-Oh
62    111   1549  1     81.36    KANGLE ; Oh-Cah-Oh
62    111   1554  1     179.82   KANGLE ; Oh-Cah-Oh
67    111   112   1     98.70    KANGLE ; Oh-Cah-Oh
67    111   1504  1     81.49    KANGLE ; Oh-Cah-Oh
67    111   1549  1     179.67   KANGLE ; Oh-Cah-Oh
67    111   1554  1     81.68    KANGLE ; Oh-Cah-Oh
112   111   1504  1     179.76   KANGLE ; Oh-Cah-Oh
112   111   1549  1     81.52    KANGLE ; Oh-Cah-Oh
112   111   1554  1     81.87    KANGLE ; Oh-Cah-Oh
1504  111   1549  1     98.29    KANGLE ; Oh-Cah-Oh
1504  111   1554  1     98.32    KANGLE ; Oh-Cah-Oh
1549  111   1554  1     98.60    KANGLE ; Oh-Cah-Oh
111   112   113   1     110.00   125.52   ; Cah-Oh-H
111   112   156   1     98.50    KANGLE ; Cah-Oh-Cah
111   112   161   1     98.10    KANGLE ; Cah-Oh-Cah
113   112   156   1     110.00   125.52   ; H-Oh-Cah
113   112   161   1     110.00   125.52   ; H-Oh-Cah
156   112   161   1     98.60    KANGLE ; Cah-Oh-Cah
115   114   471   1     110.00   125.52   ; H-Oh-Cah
115   114   476   1     110.00   125.52   ; H-Oh-Cah
115   114   521   1     110.00   125.52   ; H-Oh-Cah
471   114   476   1     98.45    KANGLE ; Cah-Oh-Cah
471   114   521   1     98.32    KANGLE ; Cah-Oh-Cah
476   114   521   1     98.32    KANGLE ; Cah-Oh-Cah
67    116   72    1     98.20    KANGLE ; Oh-Cah-Oh
67    116   117   1     98.51    KANGLE ; Oh-Cah-Oh
67    116   1509  1     81.49    KANGLE ; Oh-Cah-Oh
67    116   1554  1     81.68    KANGLE ; Oh-Cah-Oh
67    116   1559  1     179.78   KANGLE ; Oh-Cah-Oh
72    116   117   1     98.51    KANGLE ; Oh-Cah-Oh
72    116   1509  1     81.49    KANGLE ; Oh-Cah-Oh
72    116   1554  1     179.78   KANGLE ; Oh-Cah-Oh
72    116   1559  1     81.68    KANGLE ; Oh-Cah-Oh
117   116   1509  1     180.00   KANGLE ; Oh-Cah-Oh
117   116   1554  1     81.68    KANGLE ; Oh-Cah-Oh
117   116   1559  1     81.68    KANGLE ; Oh-Cah-Oh
1509  116   1554  1     98.32    KANGLE ; Oh-Cah-Oh
1509  116   1559  1     98.32    KANGLE ; Oh-Cah-Oh
1554  116   1559  1     98.45    KANGLE ; Oh-Cah-Oh
116   117   118   1     110.00   125.52   ; Cah-Oh-H
116   117   161   1     98.32    KANGLE ; Cah-Oh-Cah
116   117   166   1     98.32    KANGLE ; Cah-Oh-Cah
118   117   161   1     110.00   125.52   ; H-Oh-Cah
118   117   166   1     110.00   125.52   ; H-Oh-Cah
161   117   166   1     98.45    KANGLE ; Cah-Oh-Cah
120   119   476   1     110.00   125.52   ; H-Oh-Cah
120   119   481   1     110.00   125.52   ; H-Oh-Cah
120   119   526   1     110.00   125.52   ; H-Oh-Cah
476   119   481   1     98.45    KANGLE ; Cah-Oh-Cah
476   119   526   1     98.32    KANGLE ; Cah-Oh-Cah
481   119   526   1     98.32    KANGLE ; Cah-Oh-Cah
72    121   77    1     98.36    KANGLE ; Oh-Cah-Oh
72    121   122   1     98.51    KANGLE ; Oh-Cah-Oh
72    121   1514  1     81.67    KANGLE ; Oh-Cah-Oh
72    121   1559  1     81.68    KANGLE ; Oh-Cah-Oh
72    121   1564  1     179.67   KANGLE ; Oh-Cah-Oh
77    121   122   1     98.49    KANGLE ; Oh-Cah-Oh
77    121   1514  1     81.33    KANGLE ; Oh-Cah-Oh
77    121   1559  1     179.82   KANGLE ; Oh-Cah-Oh
77    121   1564  1     81.36    KANGLE ; Oh-Cah-Oh
122   121   1514  1     179.76   KANGLE ; Oh-Cah-Oh
122   121   1559  1     81.68    KANGLE ; Oh-Cah-Oh
122   121   1564  1     81.71    KANGLE ; Oh-Cah-Oh
1514  121   1559  1     98.50    KANGLE ; Oh-Cah-Oh
1514  121   1564  1     98.10    KANGLE ; Oh-Cah-Oh
1559  121   1564  1     98.60    KANGLE ; Oh-Cah-Oh
121   122   123   1     110.00   125.52   ; Cah-Oh-H
121   122   166   1     98.32    KANGLE ; Cah-Oh-Cah
121   122   171   1     98.29    KANGLE ; Cah-Oh-Cah
123   122   166   1     110.00   125.52   ; H-Oh-Cah
123   122   171   1     110.00   125.52   ; H-Oh-Cah
166   122   171   1     98.60    KANGLE ; Cah-Oh-Cah
125   124   481   1     110.00   125.52   ; H-Oh-Cah
125   124   486   1     110.00   125.52   ; H-Oh-Cah
125   124   531   1     110.00   125.52   ; H-Oh-Cah
481   124   486   1     98.60    KANGLE ; Cah-Oh-Cah
481   124   531   1     98.29    KANGLE ; Cah-Oh-Cah
486   124   531   1     98.32    KANGLE ; Cah-Oh-Cah
77    126   82    1     98.20    KANGLE ; Oh-Cah-Oh
77    126   127   1     98.51    KANGLE ; Oh-Cah-Oh
77    126   1519  1     81.49    KANGLE ; Oh-Cah-Oh
77    126   1564  1     81.68    KANGLE ; Oh-Cah-Oh
77    126   1569  1     179.78   KANGLE ; Oh-Cah-Oh
82    126   127   1     98.51    KANGLE ; Oh-Cah-Oh
82    126   1519  1     81.49    KANGLE ; Oh-Cah-Oh
82    126   1564  1     179.78   KANGLE ; Oh-Cah-Oh
82    126   1569  1     81.68    KANGLE ; Oh-Cah-Oh
127   126   1519  1     180.00   KANGLE ; Oh-Cah-Oh
127   126   1564  1     81.68    KANGLE ; Oh-Cah-Oh
127   126   1569  1     81.68    KANGLE ; Oh-Cah-Oh
1519  126   1564  1     98.32    KANGLE ; Oh-Cah-Oh
1519  126   1569  1     98.32    KANGLE ; Oh-Cah-Oh
1564  126   1569  1     98.45    KANGLE ; Oh-Cah-Oh
126   127   128   1     110.00   125.52   ; Cah-Oh-H
126   127   171   1     98.32    KANGLE ; Cah-Oh-Cah
126   127   176   1     98.32    KANGLE ; Cah-Oh-Cah
128   127   171   1     110.00   125.52   ; H-Oh-Cah
128   127   176   1     110.00   125.52   ; H-Oh-Cah
171   127   176   1     98.45    KANGLE ; Cah-Oh-Cah
130   129   486   1     110.00   125.52   ; H-Oh-Cah
130   129   491   1     110.00   125.52   ; H-Oh-Cah
130   129   536   1     110.00   125.52   ; H-Oh-Cah
486   129   491   1     98.60    KANGLE ; Cah-Oh-Cah
486   129   536   1     98.32    KANGLE ; Cah-Oh-Cah
491   129   536   1     98.29    KANGLE ; Cah-Oh-Cah
82    131   87    1     98.36    KANGLE ; Oh-Cah-Oh
82    131   132   1     98.30    KANGLE ; Oh-Cah-Oh
82    131   1524  1     81.51    KANGLE ; Oh-Cah-Oh
82    131   1569  1     81.36    KANGLE ; Oh-Cah-Oh
82    131   1574  1     179.82   KANGLE ; Oh-Cah-Oh
87    131   132   1     98.70    KANGLE ; Oh-Cah-Oh
87    131   1524  1     81.49    KANGLE ; Oh-Cah-Oh
87    131   1569  1     179.67   KANGLE ; Oh-Cah-Oh
87    131   1574  1     81.68    KANGLE ; Oh-Cah-Oh
132   131   1524  1     179.76   KANGLE ; Oh-Cah-Oh
132   131   1569  1     81.52    KANGLE ; Oh-Cah-Oh
132   131   1574  1     81.87    KANGLE ; Oh-Cah-Oh
1524  131   1569  1     98.29    KANGLE ; Oh-Cah-Oh
1524  131   1574  1     98.32    KANGLE ; Oh-Cah-Oh
1569  131   1574  1     98.60    KANGLE ; Oh-Cah-Oh
131   132   133   1     110.00   125.52   ; Cah-Oh-H
131   132   136   1     98.12    KANGLE ; Cah-Oh-Cah
131   132   176   1     98.50    KANGLE ; Cah-Oh-Cah
133   132   136   1     110.00   125.52   ; H-Oh-Cah
133   132   176   1     110.00   125.52   ; H-Oh-Cah
136   132   176   1     98.53    KANGLE ; Cah-Oh-Cah
135   134   451   1     110.00   125.52   ; H-Oh-Cah
135   134   491   1     110.00   125.52   ; H-Oh-Cah
135   134   496   1     110.00   125.52   ; H-Oh-Cah
451   134   491   1     98.53    KANGLE ; Cah-Oh-Cah
451   134   496   1     98.40    KANGLE ; Cah-Oh-Cah
491   134   496   1     98.22    KANGLE ; Cah-Oh-Cah
92    136   132   1     98.53    KANGLE ; Oh-Cah-Oh
92    136   137   1     98.32    KANGLE ; Oh-Cah-Oh
92    136   1574  1     81.59    KANGLE ; Oh-Cah-Oh
92    136   1579  1     81.52    KANGLE ; Oh-Cah-Oh
92    136   1619  1     179.73   KANGLE ; Oh-Cah-Oh
132   136   137   1     98.30    KANGLE ; Oh-Cah-Oh
132   136   1574  1     81.79    KANGLE ; Oh-Cah-Oh
132   136   1579  1     179.82   KANGLE ; Oh-Cah-Oh
132   136   1619  1     81.68    KANGLE ; Oh-Cah-Oh
137   136   1574  1     179.88   KANGLE ; Oh-Cah-Oh
137   136   1579  1     81.51    KANGLE ; Oh-Cah-Oh
137   136   1619  1     81.47    KANGLE ; Oh-Cah-Oh
1574  136   1579  1     98.39    KANGLE ; Oh-Cah-Oh
1574  136   1619  1     98.62    KANGLE ; Oh-Cah-Oh
1579  136   1619  1     98.28    KANGLE ; Oh-Cah-Oh
136   137   138   1     110.00   125.52   ; Cah-Oh-H
136   137   181   1     98.51    KANGLE ; Cah-Oh-Cah
136   137   186   1     98.49    KANGLE ; Cah-Oh-Cah
138   137   181   1     110.00   125.52   ; H-Oh-Cah
138   137   186   1     110.00   125.52   ; H-Oh-Cah
181   137   186   1     98.36    KANGLE ; Cah-Oh-Cah
140   139   496   1     110.00   125.52   ; H-Oh-Cah
140   139   501   1     110.00   125.52   ; H-Oh-Cah
140   139   546   1     110.00   125.52   ; H-Oh-Cah
496   139   501   1     98.36    KANGLE ; Cah-Oh-Cah
496   139   546   1     98.49    KANGLE ; Cah-Oh-Cah
501   139   546   1     98.51    KANGLE ; Cah-Oh-Cah
92    141   97    1     98.60    KANGLE ; Oh-Cah-Oh
92    141   142   1     98.29    KANGLE ; Oh-Cah-Oh
92    141   1534  1     81.71    KANGLE ; Oh-Cah-Oh
92    141   1579  1     81.52    KANGLE ; Oh-Cah-Oh
92    141   1584  1     179.67   KANGLE ; Oh-Cah-Oh
97    141   142   1     98.32    KANGLE ; Oh-Cah-Oh
97    141   1534  1     81.68    KANGLE ; Oh-Cah-Oh
97    141   1579  1     179.78   KANGLE ; Oh-Cah-Oh
97    141   1584  1     81.68    KANGLE ; Oh-Cah-Oh
142   141   1534  1     180.00   KANGLE ; Oh-Cah-Oh
142   141   1579  1     81.49    KANGLE ; Oh-Cah-Oh
142   141   1584  1     81.49    KANGLE ; Oh-Cah-Oh
1534  141   1579  1     98.51    KANGLE ; Oh-Cah-Oh
1534  141   1584  1     98.51    KANGLE ; Oh-Cah-Oh
1579  141   1584  1     98.20    KANGLE ; Oh-Cah-Oh
141   142   143   1     110.00   125.52   ; Cah-Oh-H
141   142   186   1     98.51    KANGLE ; Cah-Oh-Cah
141   142   191   1     98.51    KANGLE ; Cah-Oh-Cah
143   142   186   1     110.00   125.52   ; H-Oh-Cah
143   142   191   1     110.00   125.52   ; H-Oh-Cah
186   142   191   1     98.20    KANGLE ; Cah-Oh-Cah
145   144   501   1     110.00   125.52   ; H-Oh-Cah
145   144   506   1     110.00   125.52   ; H-Oh-Cah
145   144   551   1     110.00   125.52   ; H-Oh-Cah
501   144   506   1     98.20    KANGLE ; Cah-Oh-Cah
501   144   551   1     98.51    KANGLE ; Cah-Oh-Cah
506   144   551   1     98.51    KANGLE ; Cah-Oh-Cah
97    146   102   1     98.45    KANGLE ; Oh-Cah-Oh
97    146   147   1     98.32    KANGLE ; Oh-Cah-Oh
97    146   1539  1     81.68    KANGLE ; Oh-Cah-Oh
97    146   1584  1     81.68    KANGLE ; Oh-Cah-Oh
97    146   1589  1     179.82   KANGLE ; Oh-Cah-Oh
102   146   147   1     98.32    KANGLE ; Oh-Cah-Oh
102   146   1539  1     81.68    KANGLE ; Oh-Cah-Oh
102   146   1584  1     179.78   KANGLE ; Oh-Cah-Oh
102   146   1589  1     81.52    KANGLE ; Oh-Cah-Oh
147   146   1539  1     180.00   KANGLE ; Oh-Cah-Oh
147   146   1584  1     81.49    KANGLE ; Oh-Cah-Oh
147   146   1589  1     81.51    KANGLE ; Oh-Cah-Oh
1539  146   1584  1     98.51    KANGLE ; Oh-Cah-Oh
1539  146   1589  1     98.49    KANGLE ; Oh-Cah-Oh
1584  146   1589  1     98.36    KANGLE ; Oh-Cah-Oh
146   147   148   1     110.00   125.52   ; Cah-Oh-H
146   147   191   1     98.51    KANGLE ; Cah-Oh-Cah
146   147   196   1     98.49    KANGLE ; Cah-Oh-Cah
148   147   191   1     110.00   125.52   ; H-Oh-Cah
148   147   196   1     110.00   125.52   ; H-Oh-Cah
191   147   196   1     98.36    KANGLE ; Cah-Oh-Cah
150   149   506   1     110.00   125.52   ; H-Oh-Cah
150   149   511   1     110.00   125.52   ; H-Oh-Cah
150   149   556   1     110.00   125.52   ; H-Oh-Cah
506   149   511   1     98.36    KANGLE ; Cah-Oh-Cah
506   149   556   1     98.49    KANGLE ; Cah-Oh-Cah
511   149   556   1     98.51    KANGLE ; Cah-Oh-Cah
102   151   107   1     98.60    KANGLE ; Oh-Cah-Oh
102   151   152   1     98.29    KANGLE ; Oh-Cah-Oh
102   151   1544  1     81.71    KANGLE ; Oh-Cah-Oh
102   151   1589  1     81.52    KANGLE ; Oh-Cah-Oh
102   151   1594  1     179.67   KANGLE ; Oh-Cah-Oh
107   151   152   1     98.32    KANGLE ; Oh-Cah-Oh
107   151   1544  1     81.68    KANGLE ; Oh-Cah-Oh
107   151   1589  1     179.78   KANGLE ; Oh-Cah-Oh
107   151   1594  1     81.68    KANGLE ; Oh-Cah-Oh
152   151   1544  1     180.00   KANGLE ; Oh-Cah-Oh
152   151   1589  1     81.49    KANGLE ; Oh-Cah-Oh
152   151   1594  1     81.49    KANGLE ; Oh-Cah-Oh
1544  151   1589  1     98.51    KANGLE ; Oh-Cah-Oh
1544  151   1594  1     98.51    KANGLE ; Oh-Cah-Oh
1589  151   1594  1     98.20    KANGLE ; Oh-Cah-Oh
151   152   153   1     110.00   125.52   ; Cah-Oh-H
151   152   196   1     98.51    KANGLE ; Cah-Oh-Cah
151   152   201   1     98.51    KANGLE ; Cah-Oh-Cah
153   152   196   1     110.00   125.52   ; H-Oh-Cah
153   152   201   1     110.00   125.52   ; H-Oh-Cah
196   152   201   1     98.20    KANGLE ; Cah-Oh-Cah
155   154   511   1     110.00   125.52   ; H-Oh-Cah
155   154   516   1     110.00   125.52   ; H-Oh-Cah
155   154   561   1     110.00   125.52   ; H-Oh-Cah
511   154   516   1     98.20    KANGLE ; Cah-Oh-Cah
511   154   561   1     98.51    KANGLE ; Cah-Oh-Cah
516   154   561   1     98.51    KANGLE ; Cah-Oh-Cah
107   156   112   1     98.45    KANGLE ; Oh-Cah-Oh
107   156   157   1     98.32    KANGLE ; Oh-Cah-Oh
107   156   1549  1     81.68    KANGLE ; Oh-Cah-Oh
107   156   1594  1     81.68    KANGLE ; Oh-Cah-Oh
107   156   1599  1     179.82   KANGLE ; Oh-Cah-Oh
112   156   157   1     98.32    KANGLE ; Oh-Cah-Oh
112   156   1549  1     81.68    KANGLE ; Oh-Cah-Oh
112   156   1594  1     179.78   KANGLE ; Oh-Cah-Oh
112   156   1599  1     81.52    KANGLE ; Oh-Cah-Oh
157   156   1549  1     180.00   KANGLE ; Oh-Cah-Oh
157   156   1594  1     81.49    KANGLE ; Oh-Cah-Oh
157   156   1599  1     81.51    KANGLE ; Oh-Cah-Oh
1549  156   1594  1     98.51    KANGLE ; Oh-Cah-Oh
1549  156   1599  1     98.49    KANGLE ; Oh-Cah-Oh
1594  156   1599  1     98.36    KANGLE ; Oh-Cah-Oh
156   157   158   1     110.00   125.52   ; Cah-Oh-H
156   157   201   1     98.51    KANGLE ; Cah-Oh-Cah
156   157   206   1     98.49    KANGLE ; Cah-Oh-Cah
158   157   201   1     110.00   125.52   ; H-Oh-Cah
158   157   206   1     110.00   125.52   ; H-Oh-Cah
201   157   206   1     98.36    KANGLE ; Cah-Oh-Cah
160   159   516   1     110.00   125.52   ; H-Oh-Cah
160   159   521   1     110.00   125.52   ; H-Oh-Cah
160   159   566   1     110.00   125.52   ; H-Oh-Cah
516   159   521   1     98.36    KANGLE ; Cah-Oh-Cah
516   159   566   1     98.49    KANGLE ; Cah-Oh-Cah
521   159   566   1     98.51    KANGLE ; Cah-Oh-Cah
112   161   117   1     98.60    KANGLE ; Oh-Cah-Oh
112   161   162   1     98.29    KANGLE ; Oh-Cah-Oh
112   161   1554  1     81.71    KANGLE ; Oh-Cah-Oh
112   161   1599  1     81.52    KANGLE ; Oh-Cah-Oh
112   161   1604  1     179.67   KANGLE ; Oh-Cah-Oh
117   161   162   1     98.32    KANGLE ; Oh-Cah-Oh
117   161   1554  1     81.68    KANGLE ; Oh-Cah-Oh
117   161   1599  1     179.78   KANGLE ; Oh-Cah-Oh
117   161   1604  1     81.68    KANGLE ; Oh-Cah-Oh
162   161   1554  1     180.00   KANGLE ; Oh-Cah-Oh
162   161   1599  1     81.49    KANGLE ; Oh-Cah-Oh
162   161   1604  1     81.49    KANGLE ; Oh-Cah-Oh
1554  161   1599  1     98.51    KANGLE ; Oh-Cah-Oh
1554  161   1604  1     98.51    KANGLE ; Oh-Cah-Oh
1599  161   1604  1     98.20    KANGLE ; Oh-Cah-Oh
161   162   163   1     110.00   125.52   ; Cah-Oh-H
161   162   206   1     98.51    KANGLE ; Cah-Oh-Cah
161   162   211   1     98.51    KANGLE ; Cah-Oh-Cah
163   162   206   1     110.00   125.52   ; H-Oh-Cah
163   162   211   1     110.00   125.52   ; H-Oh-Cah
206   162   211   1     98.20    KANGLE ; Cah-Oh-Cah
165   164   521   1     110.00   125.52   ; H-Oh-Cah
165   164   526   1     110.00   125.52   ; H-Oh-Cah
165   164   571   1     110.00   125.52   ; H-Oh-Cah
521   164   526   1     98.20    KANGLE ; Cah-Oh-Cah
521   164   571   1     98.51    KANGLE ; Cah-Oh-Cah
526   164   571   1     98.51    KANGLE ; Cah-Oh-Cah
117   166   122   1     98.45    KANGLE ; Oh-Cah-Oh
117   166   167   1     98.32    KANGLE ; Oh-Cah-Oh
117   166   1559  1     81.68    KANGLE ; Oh-Cah-Oh
117   166   1604  1     81.68    KANGLE ; Oh-Cah-Oh
117   166   1609  1     179.82   KANGLE ; Oh-Cah-Oh
122   166   167   1     98.32    KANGLE ; Oh-Cah-Oh
122   166   1559  1     81.68    KANGLE ; Oh-Cah-Oh
122   166   1604  1     179.78   KANGLE ; Oh-Cah-Oh
122   166   1609  1     81.52    KANGLE ; Oh-Cah-Oh
167   166   1559  1     180.00   KANGLE ; Oh-Cah-Oh
167   166   1604  1     81.49    KANGLE ; Oh-Cah-Oh
167   166   1609  1     81.51    KANGLE ; Oh-Cah-Oh
1559  166   1604  1     98.51    KANGLE ; Oh-Cah-Oh
1559  166   1609  1     98.49    KANGLE ; Oh-Cah-Oh
1604  166   1609  1     98.36    KANGLE ; Oh-Cah-Oh
166   167   168   1     110.00   125.52   ; Cah-Oh-H
166   167   211   1     98.51    KANGLE ; Cah-Oh-Cah
166   167   216   1     98.49    KANGLE ; Cah-Oh-Cah
168   167   211   1     110.00   125.52   ; H-Oh-Cah
168   167   216   1     110.00   125.52   ; H-Oh-Cah
211   167   216   1     98.36    KANGLE ; Cah-Oh-Cah
170   169   526   1     110.00   125.52   ; H-Oh-Cah
170   169   531   1     110.00   125.52   ; H-Oh-Cah
170   169   576   1     110.00   125.52   ; H-Oh-Cah
526   169   531   1     98.36    KANGLE ; Cah-Oh-Cah
526   169   576   1     98.49    KANGLE ; Cah-Oh-Cah
531   169   576   1     98.51    KANGLE ; Cah-Oh-Cah
122   171   127   1     98.60    KANGLE ; Oh-Cah-Oh
122   171   172   1     98.29    KANGLE ; Oh-Cah-Oh
122   171   1564  1     81.71    KANGLE ; Oh-Cah-Oh
122   171   1609  1     81.52    KANGLE ; Oh-Cah-Oh
122   171   1614  1     179.67   KANGLE ; Oh-Cah-Oh
127   171   172   1     98.32    KANGLE ; Oh-Cah-Oh
127   171   1564  1     81.68    KANGLE ; Oh-Cah-Oh
127   171   1609  1     179.78   KANGLE ; Oh-Cah-Oh
127   171   1614  1     81.68    KANGLE ; Oh-Cah-Oh
172   171   1564  1     180.00   KANGLE ; Oh-Cah-Oh
172   171   1609  1     81.49    KANGLE ; Oh-Cah-Oh
172   171   1614  1     81.49    KANGLE ; Oh-Cah-Oh
1564  171   1609  1     98.51    KANGLE ; Oh-Cah-Oh
1564  171   1614  1     98.51    KANGLE ; Oh-Cah-Oh
1609  171   1614  1     98.20    KANGLE ; Oh-Cah-Oh
171   172   173   1     110.00   125.52   ; Cah-Oh-H
171   172   216   1     98.51    KANGLE ; Cah-Oh-Cah
171   172   221   1     98.51    KANGLE ; Cah-Oh-Cah
173   172   216   1     110.00   125.52   ; H-Oh-Cah
173   172   221   1     110.00   125.52   ; H-Oh-Cah
216   172   221   1     98.20    KANGLE ; Cah-Oh-Cah
175   174   531   1     110.00   125.52   ; H-Oh-Cah
175   174   536   1     110.00   125.52   ; H-Oh-Cah
175   174   581   1     110.00   125.52   ; H-Oh-Cah
531   174   536   1     98.20    KANGLE ; Cah-Oh-Cah
531   174   581   1     98.51    KANGLE ; Cah-Oh-Cah
536   174   581   1     98.51    KANGLE ; Cah-Oh-Cah
127   176   132   1     98.45    KANGLE ; Oh-Cah-Oh
127   176   177   1     98.32    KANGLE ; Oh-Cah-Oh
127   176   1569  1     81.68    KANGLE ; Oh-Cah-Oh
127   176   1614  1     81.68    KANGLE ; Oh-Cah-Oh
127   176   1619  1     179.82   KANGLE ; Oh-Cah-Oh
132   176   177   1     98.32    KANGLE ; Oh-Cah-Oh
132   176   1569  1     81.68    KANGLE ; Oh-Cah-Oh
132   176   1614  1     179.78   KANGLE ; Oh-Cah-Oh
132   176   1619  1     81.52    KANGLE ; Oh-Cah-Oh
177   176   1569  1     180.00   KANGLE ; Oh-Cah-Oh
177   176   1614  1     81.49    KANGLE ; Oh-Cah-Oh
177   176   1619  1     81.51    KANGLE ; Oh-Cah-Oh
1569  176   1614  1     98.51    KANGLE ; Oh-Cah-Oh
1569  176   1619  1     98.49    KANGLE ; Oh-Cah-Oh
1614  176   1619  1     98.36    KANGLE ; Oh-Cah-Oh
176   177   178   1     110.00   125.52   ; Cah-Oh-H
176   177   181   1     98.50    KANGLE ; Cah-Oh-Cah
176   177   221   1     98.51    KANGLE ; Cah-Oh-Cah
178   177   181   1     110.00   125.52   ; H-Oh-Cah
178   177   221   1     110.00   125.52   ; H-Oh-Cah
181   177   221   1     98.28    KANGLE ; Cah-Oh-Cah
180   179   496   1     110.00   125.52   ; H-Oh-Cah
180   179   536   1     110.00   125.52   ; H-Oh-Cah
180   179   541   1     110.00   125.52   ; H-Oh-Cah
496   179   536   1     98.28    KANGLE ; Cah-Oh-Cah
496   179   541   1     98.62    KANGLE ; Cah-Oh-Cah
536   179   541   1     98.39    KANGLE ; Cah-Oh-Cah
137   181   177   1     98.28    KANGLE ; Oh-Cah-Oh
137   181   182   1     98.51    KANGLE ; Oh-Cah-Oh
137   181   1619  1     81.39    KANGLE ; Oh-Cah-Oh
137   181   1624  1     81.68    KANGLE ; Oh-Cah-Oh
137   181   1664  1     179.73   KANGLE ; Oh-Cah-Oh
177   181   182   1     98.50    KANGLE ; Oh-Cah-Oh
177   181   1619  1     81.59    KANGLE ; Oh-Cah-Oh
177   181   1624  1     179.81   KANGLE ; Oh-Cah-Oh
177   181   1664  1     81.52    KANGLE ; Oh-Cah-Oh
182   181   1619  1     179.88   KANGLE ; Oh-Cah-Oh
182   181   1624  1     81.68    KANGLE ; Oh-Cah-Oh
182   181   1664  1     81.70    KANGLE ; Oh-Cah-Oh
1619  181   1624  1     98.22    KANGLE ; Oh-Cah-Oh
1619  181   1664  1     98.40    KANGLE ; Oh-Cah-Oh
1624  181   1664  1     98.53    KANGLE ; Oh-Cah-Oh
181   182   183   1     110.00   125.52   ; Cah-Oh-H
181   182   226   1     98.32    KANGLE ; Cah-Oh-Cah
181   182   231   1     98.32    KANGLE ; Cah-Oh-Cah
183   182   226   1     110.00   125.52   ; H-Oh-Cah
183   182   231   1     110.00   125.52   ; H-Oh-Cah
226   182   231   1     98.45    KANGLE ; Cah-Oh-Cah
185   184   541   1     110.00   125.52   ; H-Oh-Cah
185   184   546   1     110.00   125.52   ; H-Oh-Cah
185   184   591   1     110.00   125.52   ; H-Oh-Cah
541   184   546   1     98.60    KANGLE ; Cah-Oh-Cah
541   184   591   1     98.32    KANGLE ; Cah-Oh-Cah
546   184   591   1     98.29    KANGLE ; Cah-Oh-Cah
137   186   142   1     98.36    KANGLE ; Oh-Cah-Oh
137   186   187   1     98.30    KANGLE ; Oh-Cah-Oh
137   186   1579  1     81.51    KANGLE ; Oh-Cah-Oh
137   186   1624  1     81.36    KANGLE ; Oh-Cah-Oh
137   186   1629  1     179.82   KANGLE ; Oh-Cah-Oh
142   186   187   1     98.70    KANGLE ; Oh-Cah-Oh
142   186   1579  1     81.49    KANGLE ; Oh-Cah-Oh
142   186   1624  1     179.67   KANGLE ; Oh-Cah-Oh
142   186   1629  1     81.68    KANGLE ; Oh-Cah-Oh
187   186   1579  1     179.76   KANGLE ; Oh-Cah-Oh
187   186   1624  1     81.52    KANGLE ; Oh-Cah-Oh
187   186   1629  1     81.87    KANGLE ; Oh-Cah-Oh
1579  186   1624  1     98.29    KANGLE ; Oh-Cah-Oh
1579  186   1629  1     98.32    KANGLE ; Oh-Cah-Oh
1624  186   1629  1     98.60    KANGLE ; Oh-Cah-Oh
186   187   188   1     110.00   125.52   ; Cah-Oh-H
186   187   231   1     98.50    KANGLE ; Cah-Oh-Cah
186   187   236   1     98.10    KANGLE ; Cah-Oh-Cah
188   187   231   1     110.00   125.52   ; H-Oh-Cah
188   187   236   1     110.00   125.52   ; H-Oh-Cah
231   187   236   1     98.60    KANGLE ; Cah-Oh-Cah
190   189   546   1     110.00   125.52   ; H-Oh-Cah
190   189   551   1     110.00   125.52   ; H-Oh-Cah
190   189   596   1     110.00   125.52   ; H-Oh-Cah
546   189   551   1     98.45    KANGLE ; Cah-Oh-Cah
546   189   596   1     98.32    KANGLE ; Cah-Oh-Cah
551   189   596   1     98.32    KANGLE ; Cah-Oh-Cah
142   191   147   1     98.20    KANGLE ; Oh-Cah-Oh
142   191   192   1     98.51    KANGLE ; Oh-Cah-Oh
142   191   1584  1     81.49    KANGLE ; Oh-Cah-Oh
142   191   1629  1     81.68    KANGLE ; Oh-Cah-Oh
142   191   1634  1     179.78   KANGLE ; Oh-Cah-Oh
147   191   192   1     98.51    KANGLE ; Oh-Cah-Oh
147   191   1584  1     81.49    KANGLE ; Oh-Cah-Oh
147   191   1629  1     179.78   KANGLE ; Oh-Cah-Oh
147   191   1634  1     81.68    KANGLE ; Oh-Cah-Oh
192   191   1584  1     180.00   KANGLE ; Oh-Cah-Oh
192   191   1629  1     81.68    KANGLE ; Oh-Cah-Oh
192   191   1634  1     81.68    KANGLE ; Oh-Cah-Oh
1584  191   1629  1     98.32    KANGLE ; Oh-Cah-Oh
1584  191   1634  1     98.32    KANGLE ; Oh-Cah-Oh
1629  191   1634  1     98.45    KANGLE ; Oh-Cah-Oh
191   192   193   1     110.00   125.52   ; Cah-Oh-H
191   192   236   1     98.32    KANGLE ; Cah-Oh-Cah
191   192   241   1     98.32    KANGLE ; Cah-Oh-Cah
193   192   236   1     110.00   125.52   ; H-Oh-Cah
193   192   241   1     110.00   125.52   ; H-Oh-Cah
236   192   241   1     98.45    KANGLE ; Cah-Oh-Cah
195   194   551   1     110.00   125.52   ; H-Oh-Cah
195   194   556   1     110.00   125.52   ; H-Oh-Cah
195   194   601   1     110.00   125.52   ; H-Oh-Cah
551   194   556   1     98.60    KANGLE ; Cah-Oh-Cah
551   194   601   1     98.32    KANGLE ; Cah-Oh-Cah
556   194   601   1     98.29    KANGLE ; Cah-Oh-Cah
147   196   152   1     98.36    KANGLE ; Oh-Cah-Oh
147   196   197   1     98.30    KANGLE ; Oh-Cah-Oh
147   196   1589  1     81.51    KANGLE ; Oh-Cah-Oh
147   196   1634  1     81.36    KANGLE ; Oh-Cah-Oh
147   196   1639  1     179.82   KANGLE ; Oh-Cah-Oh
152   196   197   1     98.70    KANGLE ; Oh-Cah-Oh
152   196   1589  1     81.49    KANGLE ; Oh-Cah-Oh
152   196   1634  1     179.67   KANGLE ; Oh-Cah-Oh
152   196   1639  1     81.68    KANGLE ; Oh-Cah-Oh
197   196   1589  1     179.76   KANGLE ; Oh-Cah-Oh
197   196   1634  1     81.52    KANGLE ; Oh-Cah-Oh
197   196   1639  1     81.87    KANGLE ; Oh-Cah-Oh
1589  196   1634  1     98.29    KANGLE ; Oh-Cah-Oh
1589  196   1639  1     98.32    KANGLE ; Oh-Cah-Oh
1634  196   1639  1     98.60    KANGLE ; Oh-Cah-Oh
196   197   198   1     110.00   125.52   ; Cah-Oh-H
196   197   241   1     98.50    KANGLE ; Cah-Oh-Cah
196   197   246   1     98.10    KANGLE ; Cah-Oh-Cah
198   197   241   1     110.00   125.52   ; H-Oh-Cah
198   197   246   1     110.00   125.52   ; H-Oh-Cah
241   197   246   1     98.60    KANGLE ; Cah-Oh-Cah
200   199   556   1     110.00   125.52   ; H-Oh-Cah
200   199   561   1     110.00   125.52   ; H-Oh-Cah
200   199   606   1     110.00   125.52   ; H-Oh-Cah
556   199   561   1     98.45    KANGLE ; Cah-Oh-Cah
556   199   606   1     98.32    KANGLE ; Cah-Oh-Cah
561   199   606   1     98.32    KANGLE ; Cah-Oh-Cah
152   201   157   1     98.20    KANGLE ; Oh-Cah-Oh
152   201   202   1     98.51    KANGLE ; Oh-Cah-Oh
152   201   1594  1     81.49    KANGLE ; Oh-Cah-Oh
152   201   1639  1     81.68    KANGLE ; Oh-Cah-Oh
152   201   1644  1     179.78   KANGLE ; Oh-Cah-Oh
157   201   202   1     98.51    KANGLE ; Oh-Cah-Oh
157   201   1594  1     81.49    KANGLE ; Oh-Cah-Oh
157   201   1639  1     179.78   KANGLE ; Oh-Cah-Oh
157   201   1644  1     81.68    KANGLE ; Oh-Cah-Oh
202   201   1594  1     180.00   KANGLE ; Oh-Cah-Oh
202   201   1639  1     81.68    KANGLE ; Oh-Cah-Oh
202   201   1644  1     81.68    KANGLE ; Oh-Cah-Oh
1594  201   1639  1     98.32    KANGLE ; Oh-Cah-Oh
1594  201   1644  1     98.32    KANGLE ; Oh-Cah-Oh
1639  201   1644  1     98.45    KANGLE ; Oh-Cah-Oh
201   202   203   1     110.00   125.52   ; Cah-Oh-H
201   202   246   1     98.32    KANGLE ; Cah-Oh-Cah
201   202   251   1     98.32    KANGLE ; Cah-Oh-Cah
203   202   246   1     110.00   125.52   ; H-Oh-Cah
203   202   251   1     110.00   125.52   ; H-Oh-Cah
246   202   251   1     98.45    KANGLE ; Cah-Oh-Cah
205   204   561   1     110.00   125.52   ; H-Oh-Cah
205   204   566   1     110.00   125.52   ; H-Oh-Cah
205   204   611   1     110.00   125.52   ; H-Oh-Cah
561   204   566   1     98.60    KANGLE ; Cah-Oh-Cah
561   204   611   1     98.32    KANGLE ; Cah-Oh-Cah
566   204   611   1     98.29    KANGLE ; Cah-Oh-Cah
157   206   162   1     98.36    KANGLE ; Oh-Cah-Oh
157   206   207   1     98.30    KANGLE ; Oh-Cah-Oh
157   206   1599  1     81.51    KANGLE ; Oh-Cah-Oh
157   206   1644  1     81.36    KANGLE ; Oh-Cah-Oh
157   206   1649  1     179.82   KANGLE ; Oh-Cah-Oh
162   206   207   1     98.70    KANGLE ; Oh-Cah-Oh
162   206   1599  1     81.49    KANGLE ; Oh-Cah-Oh
162   206   1644  1     179.67   KANGLE ; Oh-Cah-Oh
162   206   1649  1     81.68    KANGLE ; Oh-Cah-Oh
207   206   1599  1     179.76   KANGLE ; Oh-Cah-Oh
207   206   1644  1     81.52    KANGLE ; Oh-Cah-Oh
207   206   1649  1     81.87    KANGLE ; Oh-Cah-Oh
1599  206   1644  1     98.29    KANGLE ; Oh-Cah-Oh
1599  206   1649  1     98.32    KANGLE ; Oh-Cah-Oh
1644  206   1649  1     98.60    KANGLE ; Oh-Cah-Oh
206   207   208   1     110.00   125.52   ; Cah-Oh-H
206   207   251   1     98.50    KANGLE ; Cah-Oh-Cah
206   207   256   1     98.10    KANGLE ; Cah-Oh-Cah
208   207   251   1     110.00   125.52   ; H-Oh-Cah
208   207   256   1     110.00   125.52   ; H-Oh-Cah
251   207   256   1     98.60    KANGLE ; Cah-Oh-Cah
210   209   566   1     110.00   125.52   ; H-Oh-Cah
210   209   571   1     110.00   125.52   ; H-Oh-Cah
210   209   616   1     110.00   125.52   ; H-Oh-Cah
566   209   571   1     98.45    KANGLE ; Cah-Oh-Cah
566   209   616   1     98.32    KANGLE ; Cah-Oh-Cah
571   209   616   1     98.32    KANGLE ; Cah-Oh-Cah
162   211   167   1     98.20    KANGLE ; Oh-Cah-Oh
162   211   212   1     98.51    KANGLE ; Oh-Cah-Oh
162   211   1604  1     81.49    KANGLE ; Oh-Cah-Oh
162   211   1649  1     81.68    KANGLE ; Oh-Cah-Oh
162   211   1654  1     179.78   KANGLE ; Oh-Cah-Oh
167   211   212   1     98.51    KANGLE ; Oh-Cah-Oh
167   211   1604  1     81.49    KANGLE ; Oh-Cah-Oh
167   211   1649  1     179.78   KANGLE ; Oh-Cah-Oh
167   211   1654  1     81.68    KANGLE ; Oh-Cah-Oh
212   211   1604  1     180.00   KANGLE ; Oh-Cah-Oh
212   211   1649  1     81.68    KANGLE ; Oh-Cah-Oh
212   211   1654  1     81.68    KANGLE ; Oh-Cah-Oh
1604  211   1649  1     98.32    KANGLE ; Oh-Cah-Oh
1604  211   1654  1     98.32    KANGLE ; Oh-Cah-Oh
1649  211   1654  1     98.45    KANGLE ; Oh-Cah-Oh
211   212   213   1     110.00   125.52   ; Cah-Oh-H
211   212   256   1     98.32    KANGLE ; Cah-Oh-Cah
211   212   261   1     98.32    KANGLE ; Cah-Oh-Cah
213   212   256   1     110.00   125.52   ; H-Oh-Cah
213   212   261   1     110.00   125.52   ; H-Oh-Cah
256   212   261   1     98.45    KANGLE ; Cah-Oh-Cah
215   214   571   1     110.00   125.52   ; H-Oh-Cah
215   214   576   1     110.00   125.52   ; H-Oh-Cah
215   214   621   1     110.00   125.52   ; H-Oh-Cah
571   214   576   1     98.60    KANGLE ; Cah-Oh-Cah
571   214   621   1     98.32    KANGLE ; Cah-Oh-Cah
576   214   621   1     98.29    KANGLE ; Cah-Oh-Cah
167   216   172   1     98.36    KANGLE ; Oh-Cah-Oh
167   216   217   1     98.30    KANGLE ; Oh-Cah-Oh
167   216   1609  1     81.51    KANGLE ; Oh-Cah-Oh
167   216   1654  1     81.36    KANGLE ; Oh-Cah-Oh
167   216   1659  1     179.82   KANGLE ; Oh-Cah-Oh
172   216   217   1     98.70    KANGLE ; Oh-Cah-Oh
172   216   1609  1     81.49    KANGLE ; Oh-Cah-Oh
172   216   1654  1     179.67   KANGLE ; Oh-Cah-Oh
172   216   1659  1     81.68    KANGLE ; Oh-Cah-Oh
217   216   1609  1     179.76   KANGLE ; Oh-Cah-Oh
217   216   1654  1     81.52    KANGLE ; Oh-Cah-Oh
217   216   1659  1     81.87    KANGLE ; Oh-Cah-Oh
1609  216   1654  1     98.29    KANGLE ; Oh-Cah-Oh
1609  216   1659  1     98.32    KANGLE ; Oh-Cah-Oh
1654  216   1659  1     98.60    KANGLE ; Oh-Cah-Oh
216   217   218   1     110.00   125.52   ; Cah-Oh-H
216   217   261   1     98.50    KANGLE ; Cah-Oh-Cah
216   217   266   1     98.10    KANGLE ; Cah-Oh-Cah
218   217   261   1     110.00   125.52   ; H-Oh-Cah
218   217   266   1     110.00   125.52   ; H-Oh-Cah
261   217   266   1     98.60    KANGLE ; Cah-Oh-Cah
220   219   576   1     110.00   125.52   ; H-Oh-Cah
220   219   581   1     110.00   125.52   ; H-Oh-Cah
220   219   626   1     110.00   125.52   ; H-Oh-Cah
576   219   581   1     98.45    KANGLE ; Cah-Oh-Cah
576   219   626   1     98.32    KANGLE ; Cah-Oh-Cah
581   219   626   1     98.32    KANGLE ; Cah-Oh-Cah
172   221   177   1     98.20    KANGLE ; Oh-Cah-Oh
172   221   222   1     98.51    KANGLE ; Oh-Cah-Oh
172   221   1614  1     81.49    KANGLE ; Oh-Cah-Oh
172   221   1659  1     81.68    KANGLE ; Oh-Cah-Oh
172   221   1664  1     179.78   KANGLE ; Oh-Cah-Oh
177   221   222   1     98.51    KANGLE ; Oh-Cah-Oh
177   221   1614  1     81.49    KANGLE ; Oh-Cah-Oh
177   221   1659  1     179.78   KANGLE ; Oh-Cah-Oh
177   221   1664  1     81.68    KANGLE ; Oh-Cah-Oh
222   221   1614  1     180.00   KANGLE ; Oh-Cah-Oh
222   221   1659  1     81.68    KANGLE ; Oh-Cah-Oh
222   221   1664  1     81.68    KANGLE ; Oh-Cah-Oh
1614  221   1659  1     98.32    KANGLE ; Oh-Cah-Oh
1614  221   1664  1     98.32    KANGLE ; Oh-Cah-Oh
1659  221   1664  1     98.45    KANGLE ; Oh-Cah-Oh
221   222   223   1     110.00   125.52   ; Cah-Oh-H
221   222   226   1     98.30    KANGLE ; Cah-Oh-Cah
221   222   266   1     98.32    KANGLE ; Cah-Oh-Cah
223   222   226   1     110.00   125.52   ; H-Oh-Cah
223   222   266   1     110.00   125.52   ; H-Oh-Cah
226   222   266   1     98.53    KANGLE ; Cah-Oh-Cah
225   224   541   1     110.00   125.52   ; H-Oh-Cah
225   224   581   1     110.00   125.52   ; H-Oh-Cah
225   224   586   1     110.00   125.52   ; H-Oh-Cah
541   224   581   1     98.53    KANGLE ; Cah-Oh-Cah
541   224   586   1     98.21    KANGLE ; Cah-Oh-Cah
581   224   586   1     98.41    KANGLE ; Cah-Oh-Cah
182   226   222   1     98.53    KANGLE ; Oh-Cah-Oh
182   226   227   1     98.32    KANGLE ; Oh-Cah-Oh
182   226   1664  1     81.78    KANGLE ; Oh-Cah-Oh
182   226   1669  1     81.68    KANGLE ; Oh-Cah-Oh
182   226   1709  1     179.81   KANGLE ; Oh-Cah-Oh
222   226   227   1     98.30    KANGLE ; Oh-Cah-Oh
222   226   1664  1     81.60    KANGLE ; Oh-Cah-Oh
222   226   1669  1     179.73   KANGLE ; Oh-Cah-Oh
222   226   1709  1     81.52    KANGLE ; Oh-Cah-Oh
227   226   1664  1     179.88   KANGLE ; Oh-Cah-Oh
227   226   1669  1     81.49    KANGLE ; Oh-Cah-Oh
227   226   1709  1     81.50    KANGLE ; Oh-Cah-Oh
1664  226   1669  1     98.61    KANGLE ; Oh-Cah-Oh
1664  226   1709  1     98.41    KANGLE ; Oh-Cah-Oh
1669  226   1709  1     98.28    KANGLE ; Oh-Cah-Oh
226   227   228   1     110.00   125.52   ; Cah-Oh-H
226   227   271   1     98.51    KANGLE ; Cah-Oh-Cah
226   227   276   1     98.51    KANGLE ; Cah-Oh-Cah
228   227   271   1     110.00   125.52   ; H-Oh-Cah
228   227   276   1     110.00   125.52   ; H-Oh-Cah
271   227   276   1     98.20    KANGLE ; Cah-Oh-Cah
230   229   586   1     110.00   125.52   ; H-Oh-Cah
230   229   591   1     110.00   125.52   ; H-Oh-Cah
230   229   636   1     110.00   125.52   ; H-Oh-Cah
586   229   591   1     98.20    KANGLE ; Cah-Oh-Cah
586   229   636   1     98.51    KANGLE ; Cah-Oh-Cah
591   229   636   1     98.51    KANGLE ; Cah-Oh-Cah
182   231   187   1     98.45    KANGLE ; Oh-Cah-Oh
182   231   232   1     98.32    KANGLE ; Oh-Cah-Oh
182   231   1624  1     81.68    KANGLE ; Oh-Cah-Oh
182   231   1669  1     81.68    KANGLE ; Oh-Cah-Oh
182   231   1674  1     179.82   KANGLE ; Oh-Cah-Oh
187   231   232   1     98.32    KANGLE ; Oh-Cah-Oh
187   231   1624  1     81.68    KANGLE ; Oh-Cah-Oh
187   231   1669  1     179.78   KANGLE ; Oh-Cah-Oh
187   231   1674  1     81.52    KANGLE ; Oh-Cah-Oh
232   231   1624  1     180.00   KANGLE ; Oh-Cah-Oh
232   231   1669  1     81.49    KANGLE ; Oh-Cah-Oh
232   231   1674  1     81.51    KANGLE ; Oh-Cah-Oh
1624  231   1669  1     98.51    KANGLE ; Oh-Cah-Oh
1624  231   1674  1     98.49    KANGLE ; Oh-Cah-Oh
1669  231   1674  1     98.36    KANGLE ; Oh-Cah-Oh
231   232   233   1     110.00   125.52   ; Cah-Oh-H
231   232   276   1     98.51    KANGLE ; Cah-Oh-Cah
231   232   281   1     98.49    KANGLE ; Cah-Oh-Cah
233   232   276   1     110.00   125.52   ; H-Oh-Cah
233   232   281   1     110.00   125.52   ; H-Oh-Cah
276   232   281   1     98.36    KANGLE ; Cah-Oh-Cah
235   234   591   1     110.00   125.52   ; H-Oh-Cah
235   234   596   1     110.00   125.52   ; H-Oh-Cah
235   234   641   1     110.00   125.52   ; H-Oh-Cah
591   234   596   1     98.36    KANGLE ; Cah-Oh-Cah
591   234   641   1     98.49    KANGLE ; Cah-Oh-Cah
596   234   641   1     98.51    KANGLE ; Cah-Oh-Cah
187   236   192   1     98.60    KANGLE ; Oh-Cah-Oh
187   236   237   1     98.29    KANGLE ; Oh-Cah-Oh
187   236   1629  1     81.71    KANGLE ; Oh-Cah-Oh
187   236   1674  1     81.52    KANGLE ; Oh-Cah-Oh
187   236   1679  1     179.67   KANGLE ; Oh-Cah-Oh
192   236   237   1     98.32    KANGLE ; Oh-Cah-Oh
192   236   1629  1     81.68    KANGLE ; Oh-Cah-Oh
192   236   1674  1     179.78   KANGLE ; Oh-Cah-Oh
192   236   1679  1     81.68    KANGLE ; Oh-Cah-Oh
237   236   1629  1     180.00   KANGLE ; Oh-Cah-Oh
237   236   1674  1     81.49    KANGLE ; Oh-Cah-Oh
237   236   1679  1     81.49    KANGLE ; Oh-Cah-Oh
1629  236   1674  1     98.51    KANGLE ; Oh-Cah-Oh
1629  236   1679  1     98.51    KANGLE ; Oh-Cah-Oh
1674  236   1679  1     98.20    KANGLE ; Oh-Cah-Oh
236   237   238   1     110.00   125.52   ; Cah-Oh-H
236   237   281   1     98.51    KANGLE ; Cah-Oh-Cah
236   237   286   1     98.51    KANGLE ; Cah-Oh-Cah
238   237   281   1     110.00   125.52   ; H-Oh-Cah
238   237   286   1     110.00   125.52   ; H-Oh-Cah
281   237   286   1     98.20    KANGLE ; Cah-Oh-Cah
240   239   596   1     110.00   125.52   ; H-Oh-Cah
240   239   601   1     110.00   125.52   ; H-Oh-Cah
240   239   646   1     110.00   125.52   ; H-Oh-Cah
596   239   601   1     98.20    KANGLE ; Cah-Oh-Cah
596   239   646   1     98.51    KANGLE ; Cah-Oh-Cah
601   239   646   1     98.51    KANGLE ; Cah-Oh-Cah
192   241   197   1     98.45    KANGLE ; Oh-Cah-Oh
192   241   242   1     98.32    KANGLE ; Oh-Cah-Oh
192   241   1634  1     81.68    KANGLE ; Oh-Cah-Oh
192   241   1679  1     81.68    KANGLE ; Oh-Cah-Oh
192   241   1684  1     179.82   KANGLE ; Oh-Cah-Oh
197   241   242   1     98.32    KANGLE ; Oh-Cah-Oh
197   241   1634  1     81.68    KANGLE ; Oh-Cah-Oh
197   241   1679  1     179.78   KANGLE ; Oh-Cah-Oh
197   241   1684  1     81.52    KANGLE ; Oh-Cah-Oh
242   241   1634  1     180.00   KANGLE ; Oh-Cah-Oh
242   241   1679  1     81.49    KANGLE ; Oh-Cah-Oh
242   241   1684  1     81.51    KANGLE ; Oh-Cah-Oh
1634  241   1679  1     98.51    KANGLE ; Oh-Cah-Oh
1634  241   1684  1     98.49    KANGLE ; Oh-Cah-Oh
1679  241   1684  1     98.36    KANGLE ; Oh-Cah-Oh
241   242   243   1     110.00   125.52   ; Cah-Oh-H
241   242   286   1     98.51    KANGLE ; Cah-Oh-Cah
241   242   291   1     98.49    KANGLE ; Cah-Oh-Cah
243   242   286   1     110.00   125.52   ; H-Oh-Cah
243   242   291   1     110.00   125.52   ; H-Oh-Cah
286   242   291   1     98.36    KANGLE ; Cah-Oh-Cah
245   244   601   1     110.00   125.52   ; H-Oh-Cah
245   244   606   1     110.00   125.52   ; H-Oh-Cah
245   244   651   1     110.00   125.52   ; H-Oh-Cah
601   244   606   1     98.36    KANGLE ; Cah-Oh-Cah
601   244   651   1     98.49    KANGLE ; Cah-Oh-Cah
606   244   651   1     98.51    KANGLE ; Cah-Oh-Cah
197   246   202   1     98.60    KANGLE ; Oh-Cah-Oh
197   246   247   1     98.29    KANGLE ; Oh-Cah-Oh
197   246   1639  1     81.71    KANGLE ; Oh-Cah-Oh
197   246   1684  1     81.52    KANGLE ; Oh-Cah-Oh
197   246   1689  1     179.67   KANGLE ; Oh-Cah-Oh
202   246   247   1     98.32    KANGLE ; Oh-Cah-Oh
202   246   1639  1     81.68    KANGLE ; Oh-Cah-Oh
202   246   1684  1     179.78   KANGLE ; Oh-Cah-Oh
202   246   1689  1     81.68    KANGLE ; Oh-Cah-Oh
247   246   1639  1     180.00   KANGLE ; Oh-Cah-Oh
247   246   1684  1     81.49    KANGLE ; Oh-Cah-Oh
247   246   1689  1     81.49    KANGLE ; Oh-Cah-Oh
1639  246   1684  1     98.51    KANGLE ; Oh-Cah-Oh
1639  246   1689  1     98.51    KANGLE ; Oh-Cah-Oh
1684  246   1689  1     98.20    KANGLE ; Oh-Cah-Oh
246   247   248   1     110.00   125.52   ; Cah-Oh-H
246   247   291   1     98.51    KANGLE ; Cah-Oh-Cah
246   247   296   1     98.51    KANGLE ; Cah-Oh-Cah
248   247   291   1     110.00   125.52   ; H-Oh-Cah
248   247   296   1     110.00   125.52   ; H-Oh-Cah
291   247   296   1     98.20    KANGLE ; Cah-Oh-Cah
250   249   606   1     110.00   125.52   ; H-Oh-Cah
250   249   611   1     110.00   125.52   ; H-Oh-Cah
250   249   656   1     110.00   125.52   ; H-Oh-Cah
606   249   611   1     98.20    KANGLE ; Cah-Oh-Cah
606   249   656   1     98.51    KANGLE ; Cah-Oh-Cah
611   249   656   1     98.51    KANGLE ; Cah-Oh-Cah
202   251   207   1     98.45    KANGLE ; Oh-Cah-Oh
202   251   252   1     98.32    KANGLE ; Oh-Cah-Oh
202   251   1644  1     81.68    KANGLE ; Oh-Cah-Oh
202   251   1689  1     81.68    KANGLE ; Oh-Cah-Oh
202   251   1694  1     179.82   KANGLE ; Oh-Cah-Oh
207   251   252   1     98.32    KANGLE ; Oh-Cah-Oh
207   251   1644  1     81.68    KANGLE ; Oh-Cah-Oh
207   251   1689  1     179.78   KANGLE ; Oh-Cah-Oh
207   251   1694  1     81.52    KANGLE ; Oh-Cah-Oh
252   251   1644  1     180.00   KANGLE ; Oh-Cah-Oh
252   251   1689  1     81.49    KANGLE ; Oh-Cah-Oh
252   251   1694  1     81.51    KANGLE ; Oh-Cah-Oh
1644  251   1689  1     98.51    KANGLE ; Oh-Cah-Oh
1644  251   1694  1     98.49    KANGLE ; Oh-Cah-Oh
1689  251   1694  1     98.36    KANGLE ; Oh-Cah-Oh
251   252   253   1     110.00   125.52   ; Cah-Oh-H
251   252   296   1     98.51    KANGLE ; Cah-Oh-Cah
251   252   301   1     98.49    KANGLE ; Cah-Oh-Cah
253   252   296   1     110.00   125.52   ; H-Oh-Cah
253   252   301   1     110.00   125.52   ; H-Oh-Cah
296   252   301   1     98.36    KANGLE ; Cah-Oh-Cah
255   254   611   1     110.00   125.52   ; H-Oh-Cah
255   254   616   1     110.00   125.52   ; H-Oh-Cah
255   254   661   1     110.00   125.52   ; H-Oh-Cah
611   254   616   1     98.36    KANGLE ; Cah-Oh-Cah
611   254   661   1     98.49    KANGLE ; Cah-Oh-Cah
616   254   661   1     98.51    KANGLE ; Cah-Oh-Cah
207   256   212   1     98.60    KANGLE ; Oh-Cah-Oh
207   256   257   1     98.29    KANGLE ; Oh-Cah-Oh
207   256   1649  1     81.71    KANGLE ; Oh-Cah-Oh
207   256   1694  1     81.52    KANGLE ; Oh-Cah-Oh
207   256   1699  1     179.67   KANGLE ; Oh-Cah-Oh
212   256   257   1     98.32    KANGLE ; Oh-Cah-Oh
212   256   1649  1     81.68    KANGLE ; Oh-Cah-Oh
212   256   1694  1     179.78   KANGLE ; Oh-Cah-Oh
212   256   1699  1     81.68    KANGLE ; Oh-Cah-Oh
257   256   1649  1     180.00   KANGLE ; Oh-Cah-Oh
257   256   1694  1     81.49    KANGLE ; Oh-Cah-Oh
257   256   1699  1     81.49    KANGLE ; Oh-Cah-Oh
1649  256   1694  1     98.51    KANGLE ; Oh-Cah-Oh
1649  256   1699  1     98.51    KANGLE ; Oh-Cah-Oh
1694  256   1699  1     98.20    KANGLE ; Oh-Cah-Oh
256   257   258   1     110.00   125.52   ; Cah-Oh-H
256   257   301   1     98.51    KANGLE ; Cah-Oh-Cah
256   257   306   1     98.51    KANGLE ; Cah-Oh-Cah
258   257   301   1     110.00   125.52   ; H-Oh-Cah
258   257   306   1     110.00   125.52   ; H-Oh-Cah
301   257   306   1     98.20    KANGLE ; Cah-Oh-Cah
260   259   616   1     110.00   125.52   ; H-Oh-Cah
260   259   621   1     110.00   125.52   ; H-Oh-Cah
260   259   666   1     110.00   125.52   ; H-Oh-Cah
616   259   621   1     98.20    KANGLE ; Cah-Oh-Cah
616   259   666   1     98.51    KANGLE ; Cah-Oh-Cah
621   259   666   1     98.51    KANGLE ; Cah-Oh-Cah
212   261   217   1     98.45    KANGLE ; Oh-Cah-Oh
212   261   262   1     98.32    KANGLE ; Oh-Cah-Oh
212   261   1654  1     81.68    KANGLE ; Oh-Cah-Oh
212   261   1699  1     81.68    KANGLE ; Oh-Cah-Oh
212   261   1704  1     179.82   KANGLE ; Oh-Cah-Oh
217   261   262   1     98.32    KANGLE ; Oh-Cah-Oh
217   261   1654  1     81.68    KANGLE ; Oh-Cah-Oh
217   261   1699  1     179.78   KANGLE ; Oh-Cah-Oh
217   261   1704  1     81.52    KANGLE ; Oh-Cah-Oh
262   261   1654  1     180.00   KANGLE ; Oh-Cah-Oh
262   261   1699  1     81.49    KANGLE ; Oh-Cah-Oh
262   261   1704  1     81.51    KANGLE ; Oh-Cah-Oh
1654  261   1699  1     98.51    KANGLE ; Oh-Cah-Oh
1654  261   1704  1     98.49    KANGLE ; Oh-Cah-Oh
1699  261   1704  1     98.36    KANGLE ; Oh-Cah-Oh
261   262   263   1     110.00   125.52   ; Cah-Oh-H
261   262   306   1     98.51    KANGLE ; Cah-Oh-Cah
261   262   311   1     98.49    KANGLE ; Cah-Oh-Cah
263   262   306   1     110.00   125.52   ; H-Oh-Cah
263   262   311   1     110.00   125.52   ; H-Oh-Cah
306   262   311   1     98.36    KANGLE ; Cah-Oh-Cah
265   264   621   1     110.00   125.52   ; H-Oh-Cah
265   264   626   1     110.00   125.52   ; H-Oh-Cah
265   264   671   1     110.00   125.52   ; H-Oh-Cah
621   264   626   1     98.36    KANGLE ; Cah-Oh-Cah
621   264   671   1     98.49    KANGLE ; Cah-Oh-Cah
626   264   671   1     98.51    KANGLE ; Cah-Oh-Cah
217   266   222   1     98.60    KANGLE ; Oh-Cah-Oh
217   266   267   1     98.29    KANGLE ; Oh-Cah-Oh
217   266   1659  1     81.71    KANGLE ; Oh-Cah-Oh
217   266   1704  1     81.52    KANGLE ; Oh-Cah-Oh
217   266   1709  1     179.67   KANGLE ; Oh-Cah-Oh
222   266   267   1     98.32    KANGLE ; Oh-Cah-Oh
222   266   1659  1     81.68    KANGLE ; Oh-Cah-Oh
222   266   1704  1     179.78   KANGLE ; Oh-Cah-Oh
222   266   1709  1     81.68    KANGLE ; Oh-Cah-Oh
267   266   1659  1     180.00   KANGLE ; Oh-Cah-Oh
267   266   1704  1     81.49    KANGLE ; Oh-Cah-Oh
267   266   1709  1     81.49    KANGLE ; Oh-Cah-Oh
1659  266   1704  1     98.51    KANGLE ; Oh-Cah-Oh
1659  266   1709  1     98.51    KANGLE ; Oh-Cah-Oh
1704  266   1709  1     98.20    KANGLE ; Oh-Cah-Oh
266   267   268   1     110.00   125.52   ; Cah-Oh-H
266   267   271   1     98.50    KANGLE ; Cah-Oh-Cah
266   267   311   1     98.51    KANGLE ; Cah-Oh-Cah
268   267   271   1     110.00   125.52   ; H-Oh-Cah
268   267   311   1     110.00   125.52   ; H-Oh-Cah
271   267   311   1     98.28    KANGLE ; Cah-Oh-Cah
270   269   586   1     110.00   125.52   ; H-Oh-Cah
270   269   626   1     110.00   125.52   ; H-Oh-Cah
270   269   631   1     110.00   125.52   ; H-Oh-Cah
586   269   626   1     98.28    KANGLE ; Cah-Oh-Cah
586   269   631   1     98.41    KANGLE ; Cah-Oh-Cah
626   269   631   1     98.61    KANGLE ; Cah-Oh-Cah
227   271   267   1     98.28    KANGLE ; Oh-Cah-Oh
227   271   272   1     98.70    KANGLE ; Oh-Cah-Oh
227   271   1709  1     81.58    KANGLE ; Oh-Cah-Oh
227   271   1714  1     81.68    KANGLE ; Oh-Cah-Oh
227   271   1754  1     179.73   KANGLE ; Oh-Cah-Oh
267   271   272   1     98.32    KANGLE ; Oh-Cah-Oh
267   271   1709  1     81.41    KANGLE ; Oh-Cah-Oh
267   271   1714  1     179.82   KANGLE ; Oh-Cah-Oh
267   271   1754  1     81.52    KANGLE ; Oh-Cah-Oh
272   271   1709  1     179.64   KANGLE ; Oh-Cah-Oh
272   271   1714  1     81.87    KANGLE ; Oh-Cah-Oh
272   271   1754  1     81.51    KANGLE ; Oh-Cah-Oh
1709  271   1714  1     98.41    KANGLE ; Oh-Cah-Oh
1709  271   1754  1     98.21    KANGLE ; Oh-Cah-Oh
1714  271   1754  1     98.53    KANGLE ; Oh-Cah-Oh
271   272   273   1     110.00   125.52   ; Cah-Oh-H
271   272   316   1     98.50    KANGLE ; Cah-Oh-Cah
271   272   321   1     98.10    KANGLE ; Cah-Oh-Cah
273   272   316   1     110.00   125.52   ; H-Oh-Cah
273   272   321   1     110.00   125.52   ; H-Oh-Cah
316   272   321   1     98.60    KANGLE ; Cah-Oh-Cah
275   274   631   1     110.00   125.52   ; H-Oh-Cah
275   274   636   1     110.00   125.52   ; H-Oh-Cah
275   274   681   1     110.00   125.52   ; H-Oh-Cah
631   274   636   1     98.45    KANGLE ; Cah-Oh-Cah
631   274   681   1     98.32    KANGLE ; Cah-Oh-Cah
636   274   681   1     98.32    KANGLE ; Cah-Oh-Cah
227   276   232   1     98.20    KANGLE ; Oh-Cah-Oh
227   276   277   1     98.51    KANGLE ; Oh-Cah-Oh
227   276   1669  1     81.49    KANGLE ; Oh-Cah-Oh
227   276   1714  1     81.68    KANGLE ; Oh-Cah-Oh
227   276   1719  1     179.78   KANGLE ; Oh-Cah-Oh
232   276   277   1     98.51    KANGLE ; Oh-Cah-Oh
232   276   1669  1     81.49    KANGLE ; Oh-Cah-Oh
232   276   1714  1     179.78   KANGLE ; Oh-Cah-Oh
232   276   1719  1     81.68    KANGLE ; Oh-Cah-Oh
277   276   1669  1     180.00   KANGLE ; Oh-Cah-Oh
277   276   1714  1     81.68    KANGLE ; Oh-Cah-Oh
277   276   1719  1     81.68    KANGLE ; Oh-Cah-Oh
1669  276   1714  1     98.32    KANGLE ; Oh-Cah-Oh
1669  276   1719  1     98.32    KANGLE ; Oh-Cah-Oh
1714  276   1719  1     98.45    KANGLE ; Oh-Cah-Oh
276   277   278   1     110.00   125.52   ; Cah-Oh-H
276   277   321   1     98.32    KANGLE ; Cah-Oh-Cah
276   277   326   1     98.32    KANGLE ; Cah-Oh-Cah
278   277   321   1     110.00   125.52   ; H-Oh-Cah
278   277   326   1     110.00   125.52   ; H-Oh-Cah
321   277   326   1     98.45    KANGLE ; Cah-Oh-Cah
280   279   636   1     110.00   125.52   ; H-Oh-Cah
280   279   641   1     110.00   125.52   ; H-Oh-Cah
280   279   686   1     110.00   125.52   ; H-Oh-Cah
636   279   641   1     98.60    KANGLE ; Cah-Oh-Cah
636   279   686   1     98.32    KANGLE ; Cah-Oh-Cah
641   279   686   1     98.29    KANGLE ; Cah-Oh-Cah
232   281   237   1     98.36    KANGLE ; Oh-Cah-Oh
232   281   282   1     98.30    KANGLE ; Oh-Cah-Oh
232   281   1674  1     81.51    KANGLE ; Oh-Cah-Oh
232   281   1719  1     81.36    KANGLE ; Oh-Cah-Oh
232   281   1724  1     179.82   KANGLE ; Oh-Cah-Oh
237   281   282   1     98.70    KANGLE ; Oh-Cah-Oh
237   281   1674  1     81.49    KANGLE ; Oh-Cah-Oh
237   281   1719  1     179.67   KANGLE ; Oh-Cah-Oh
237   281   1724  1     81.68    KANGLE ; Oh-Cah-Oh
282   281   1674  1     179.76   KANGLE ; Oh-Cah-Oh
282   281   1719  1     81.52    KANGLE ; Oh-Cah-Oh
282   281   1724  1     81.87    KANGLE ; Oh-Cah-Oh
1674  281   1719  1     98.29    KANGLE ; Oh-Cah-Oh
1674  281   1724  1     98.32    KANGLE ; Oh-Cah-Oh
1719  281   1724  1     98.60    KANGLE ; Oh-Cah-Oh
281   282   283   1     110.00   125.52   ; Cah-Oh-H
281   282   326   1     98.50    KANGLE ; Cah-Oh-Cah
281   282   331   1     98.10    KANGLE ; Cah-Oh-Cah
283   282   326   1     110.00   125.52   ; H-Oh-Cah
283   282   331   1     110.00   125.52   ; H-Oh-Cah
326   282   331   1     98.60    KANGLE ; Cah-Oh-Cah
285   284   641   1     110.00   125.52   ; H-Oh-Cah
285   284   646   1     110.00   125.52   ; H-Oh-Cah
285   284   691   1     110.00   125.52   ; H-Oh-Cah
641   284   646   1     98.45    KANGLE ; Cah-Oh-Cah
641   284   691   1     98.32    KANGLE ; Cah-Oh-Cah
646   284   691   1     98.32    KANGLE ; Cah-Oh-Cah
237   286   242   1     98.20    KANGLE ; Oh-Cah-Oh
237   286   287   1     98.51    KANGLE ; Oh-Cah-Oh
237   286   1679  1     81.49    KANGLE ; Oh-Cah-Oh
237   286   1724  1     81.68    KANGLE ; Oh-Cah-Oh
237   286   1729  1     179.78   KANGLE ; Oh-Cah-Oh
242   286   287   1     98.51    KANGLE ; Oh-Cah-Oh
242   286   1679  1     81.49    KANGLE ; Oh-Cah-Oh
242   286   1724  1     179.78   KANGLE ; Oh-Cah-Oh
242   286   1729  1     81.68    KANGLE ; Oh-Cah-Oh
287   286   1679  1     180.00   KANGLE ; Oh-Cah-Oh
287   286   1724  1     81.68    KANGLE ; Oh-Cah-Oh
287   286   1729  1     81.68    KANGLE ; Oh-Cah-Oh
1679  286   1724  1     98.32    KANGLE ; Oh-Cah-Oh
1679  286   1729  1     98.32    KANGLE ; Oh-Cah-Oh
1724  286   1729  1     98.45    KANGLE ; Oh-Cah-Oh
286   287   288   1     110.00   125.52   ; Cah-Oh-H
286   287   331   1     98.32    KANGLE ; Cah-Oh-Cah
286   287   336   1     98.32    KANGLE ; Cah-Oh-Cah
288   287   331   1     110.00   125.52   ; H-Oh-Cah
288   287   336   1     110.00   125.52   ; H-Oh-Cah
331   287   336   1     98.45    KANGLE ; Cah-Oh-Cah
290   289   646   1     110.00   125.52   ; H-Oh-Cah
290   289   651   1     110.00   125.52   ; H-Oh-Cah
290   289   696   1     110.00   125.52   ; H-Oh-Cah
646   289   651   1     98.60    KANGLE ; Cah-Oh-Cah
646   289   696   1     98.32    KANGLE ; Cah-Oh-Cah
651   289   696   1     98.29    KANGLE ; Cah-Oh-Cah
242   291   247   1     98.36    KANGLE ; Oh-Cah-Oh
242   291   292   1     98.30    KANGLE ; Oh-Cah-Oh
242   291   1684  1     81.51    KANGLE ; Oh-Cah-Oh
242   291   1729  1     81.36    KANGLE ; Oh-Cah-Oh
242   291   1734  1     179.82   KANGLE ; Oh-Cah-Oh
247   291   292   1     98.70    KANGLE ; Oh-Cah-Oh
247   291   1684  1     81.49    KANGLE ; Oh-Cah-Oh
247   291   1729  1     179.67   KANGLE ; Oh-Cah-Oh
247   291   1734  1     81.68    KANGLE ; Oh-Cah-Oh
292   291   1684  1     179.76   KANGLE ; Oh-Cah-Oh
292   291   1729  1     81.52    KANGLE ; Oh-Cah-Oh
292   291   1734  1     81.87    KANGLE ; Oh-Cah-Oh
1684  291   1729  1     98.29    KANGLE ; Oh-Cah-Oh
1684  291   1734  1     98.32    KANGLE ; Oh-Cah-Oh
1729  291   1734  1     98.60    KANGLE ; Oh-Cah-Oh
291   292   293   1     110.00   125.52   ; Cah-Oh-H
291   292   336   1     98.50    KANGLE ; Cah-Oh-Cah
291   292   341   1     98.10    KANGLE ; Cah-Oh-Cah
293   292   336   1     110.00   125.52   ; H-Oh-Cah
293   292   341   1     110.00   125.52   ; H-Oh-Cah
336   292   341   1     98.60    KANGLE ; Cah-Oh-Cah
295   294   651   1     110.00   125.52   ; H-Oh-Cah
295   294   656   1     110.00   125.52   ; H-Oh-Cah
295   294   701   1     110.00   125.52   ; H-Oh-Cah
651   294   656   1     98.45    KANGLE ; Cah-Oh-Cah
651   294   701   1     98.32    KANGLE ; Cah-Oh-Cah
656   294   701   1     98.32    KANGLE ; Cah-Oh-Cah
247   296   252   1     98.20    KANGLE ; Oh-Cah-Oh
247   296   297   1     98.51    KANGLE ; Oh-Cah-Oh
247   296   1689  1     81.49    KANGLE ; Oh-Cah-Oh
247   296   1734  1     81.68    KANGLE ; Oh-Cah-Oh
247   296   1739  1     179.78   KANGLE ; Oh-Cah-Oh
252   296   297   1     98.51    KANGLE ; Oh-Cah-Oh
252   296   1689  1     81.49    KANGLE ; Oh-Cah-Oh
252   296   1734  1     179.78   KANGLE ; Oh-Cah-Oh
252   296   1739  1     81.68    KANGLE ; Oh-Cah-Oh
297   296   1689  1     180.00   KANGLE ; Oh-Cah-Oh
297   296   1734  1     81.68    KANGLE ; Oh-Cah-Oh
297   296   1739  1     81.68    KANGLE ; Oh-Cah-Oh
1689  296   1734  1     98.32    KANGLE ; Oh-Cah-Oh
1689  296   1739  1     98.32    KANGLE ; Oh-Cah-Oh
1734  296   1739  1     98.45    KANGLE ; Oh-Cah-Oh
296   297   298   1     110.00   125.52   ; Cah-Oh-H
296   297   341   1     98.32    KANGLE ; Cah-Oh-Cah
296   297   346   1     98.32    KANGLE ; Cah-Oh-Cah
298   297   341   1     110.00   125.52   ; H-Oh-Cah
298   297   346   1     110.00   125.52   ; H-Oh-Cah
341   297   346   1     98.45    KANGLE ; Cah-Oh-Cah
300   299   656   1     110.00   125.52   ; H-Oh-Cah
300   299   661   1     110.00   125.52   ; H-Oh-Cah
300   299   706   1     110.00   125.52   ; H-Oh-Cah
656   299   661   1     98.60    KANGLE ; Cah-Oh-Cah
656   299   706   1     98.32    KANGLE ; Cah-Oh-Cah
661   299   706   1     98.29    KANGLE ; Cah-Oh-Cah
252   301   257   1     98.36    KANGLE ; Oh-Cah-Oh
252   301   302   1     98.30    KANGLE ; Oh-Cah-Oh
252   301   1694  1     81.51    KANGLE ; Oh-Cah-Oh
252   301   1739  1     81.36    KANGLE ; Oh-Cah-Oh
252   301   1744  1     179.82   KANGLE ; Oh-Cah-Oh
257   301   302   1     98.70    KANGLE ; Oh-Cah-Oh
257   301   1694  1     81.49    KANGLE ; Oh-Cah-Oh
257   301   1739  1     179.67   KANGLE ; Oh-Cah-Oh
257   301   1744  1     81.68    KANGLE ; Oh-Cah-Oh
302   301   1694  1     179.76   KANGLE ; Oh-Cah-Oh
302   301   1739  1     81.52    KANGLE ; Oh-Cah-Oh
302   301   1744  1     81.87    KANGLE ; Oh-Cah-Oh
1694  301   1739  1     98.29    KANGLE ; Oh-Cah-Oh
1694  301   1744  1     98.32    KANGLE ; Oh-Cah-Oh
1739  301   1744  1     98.60    KANGLE ; Oh-Cah-Oh
301   302   303   1     110.00   125.52   ; Cah-Oh-H
301   302   346   1     98.50    KANGLE ; Cah-Oh-Cah
301   302   351   1     98.10    KANGLE ; Cah-Oh-Cah
303   302   346   1     110.00   125.52   ; H-Oh-Cah
303   302   351   1     110.00   125.52   ; H-Oh-Cah
346   302   351   1     98.60    KANGLE ; Cah-Oh-Cah
305   304   661   1     110.00   125.52   ; H-Oh-Cah
305   304   666   1     110.00   125.52   ; H-Oh-Cah
305   304   711   1     110.00   125.52   ; H-Oh-Cah
661   304   666   1     98.45    KANGLE ; Cah-Oh-Cah
661   304   711   1     98.32    KANGLE ; Cah-Oh-Cah
666   304   711   1     98.32    KANGLE ; Cah-Oh-Cah
257   306   262   1     98.20    KANGLE ; Oh-Cah-Oh
257   306   307   1     98.51    KANGLE ; Oh-Cah-Oh
257   306   1699  1     81.49    KANGLE ; Oh-Cah-Oh
257   306   1744  1     81.68    KANGLE ; Oh-Cah-Oh
257   306   1749  1     179.78   KANGLE ; Oh-Cah-Oh
262   306   307   1     98.51    KANGLE ; Oh-Cah-Oh
262   306   1699  1     81.49    KANGLE ; Oh-Cah-Oh
262   306   1744  1     179.78   KANGLE ; Oh-Cah-Oh
262   306   1749  1     81.68    KANGLE ; Oh-Cah-Oh
307   306   1699  1     180.00   KANGLE ; Oh-Cah-Oh
307   306   1744  1     81.68    KANGLE ; Oh-Cah-Oh
307   306   1749  1     81.68    KANGLE ; Oh-Cah-Oh
1699  306   1744  1     98.32    KANGLE ; Oh-Cah-Oh
1699  306   1749  1     98.32    KANGLE ; Oh-Cah-Oh
1744  306   1749  1     98.45    KANGLE ; Oh-Cah-Oh
306   307   308   1     110.00   125.52   ; Cah-Oh-H
306   307   351   1     98.32    KANGLE ; Cah-Oh-Cah
306   307   356   1     98.32    KANGLE ; Cah-Oh-Cah
308   307   351   1     110.00   125.52   ; H-Oh-Cah
308   307   356   1     110.00   125.52   ; H-Oh-Cah
351   307   356   1     98.45    KANGLE ; Cah-Oh-Cah
310   309   666   1     110.00   125.52   ; H-Oh-Cah
310   309   671   1     110.00   125.52   ; H-Oh-Cah
310   309   716   1     110.00   125.52   ; H-Oh-Cah
666   309   671   1     98.60    KANGLE ; Cah-Oh-Cah
666   309   716   1     98.32    KANGLE ; Cah-Oh-Cah
671   309   716   1     98.29    KANGLE ; Cah-Oh-Cah
262   311   267   1     98.36    KANGLE ; Oh-Cah-Oh
262   311   312   1     98.30    KANGLE ; Oh-Cah-Oh
262   311   1704  1     81.51    KANGLE ; Oh-Cah-Oh
262   311   1749  1     81.36    KANGLE ; Oh-Cah-Oh
262   311   1754  1     179.82   KANGLE ; Oh-Cah-Oh
267   311   312   1     98.70    KANGLE ; Oh-Cah-Oh
267   311   1704  1     81.49    KANGLE ; Oh-Cah-Oh
267   311   1749  1     179.67   KANGLE ; Oh-Cah-Oh
267   311   1754  1     81.68    KANGLE ; Oh-Cah-Oh
312   311   1704  1     179.76   KANGLE ; Oh-Cah-Oh
312   311   1749  1     81.52    KANGLE ; Oh-Cah-Oh
312   311   1754  1     81.87    KANGLE ; Oh-Cah-Oh
1704  311   1749  1     98.29    KANGLE ; Oh-Cah-Oh
1704  311   1754  1     98.32    KANGLE ; Oh-Cah-Oh
1749  311   1754  1     98.60    KANGLE ; Oh-Cah-Oh
311   312   313   1     110.00   125.52   ; Cah-Oh-H
311   312   316   1     98.12    KANGLE ; Cah-Oh-Cah
311   312   356   1     98.50    KANGLE ; Cah-Oh-Cah
313   312   316   1     110.00   125.52   ; H-Oh-Cah
313   312   356   1     110.00   125.52   ; H-Oh-Cah
316   312   356   1     98.53    KANGLE ; Cah-Oh-Cah
315   314   631   1     110.00   125.52   ; H-Oh-Cah
315   314   671   1     110.00   125.52   ; H-Oh-Cah
315   314   676   1     110.00   125.52   ; H-Oh-Cah
631   314   671   1     98.53    KANGLE ; Cah-Oh-Cah
631   314   676   1     98.40    KANGLE ; Cah-Oh-Cah
671   314   676   1     98.22    KANGLE ; Cah-Oh-Cah
272   316   312   1     98.53    KANGLE ; Oh-Cah-Oh
272   316   317   1     98.32    KANGLE ; Oh-Cah-Oh
272   316   1754  1     81.59    KANGLE ; Oh-Cah-Oh
272   316   1759  1     81.52    KANGLE ; Oh-Cah-Oh
272   316   1799  1     179.73   KANGLE ; Oh-Cah-Oh
312   316   317   1     98.30    KANGLE ; Oh-Cah-Oh
312   316   1754  1     81.79    KANGLE ; Oh-Cah-Oh
312   316   1759  1     179.82   KANGLE ; Oh-Cah-Oh
312   316   1799  1     81.68    KANGLE ; Oh-Cah-Oh
317   316   1754  1     179.88   KANGLE ; Oh-Cah-Oh
317   316   1759  1     81.51    KANGLE ; Oh-Cah-Oh
317   316   1799  1     81.47    KANGLE ; Oh-Cah-Oh
1754  316   1759  1     98.39    KANGLE ; Oh-Cah-Oh
1754  316   1799  1     98.62    KANGLE ; Oh-Cah-Oh
1759  316   1799  1     98.28    KANGLE ; Oh-Cah-Oh
1     317   6     1     98.26    KANGLE ; Cah-Oh-Cah
1     317   316   1     98.47    KANGLE ; Cah-Oh-Cah
1     317   318   1     110.00   125.52   ; Cah-Oh-H
6     317   316   1     98.47    KANGLE ; Cah-Oh-Cah
6     317   318   1     110.00   125.52   ; Cah-Oh-H
316   317   318   1     110.00   125.52   ; Cah-Oh-H
320   319   366   1     110.00   125.52   ; H-Oh-Cah
320   319   676   1     110.00   125.52   ; H-Oh-Cah
320   319   681   1     110.00   125.52   ; H-Oh-Cah
366   319   676   1     98.47    KANGLE ; Cah-Oh-Cah
366   319   681   1     98.50    KANGLE ; Cah-Oh-Cah
676   319   681   1     98.36    KANGLE ; Cah-Oh-Cah
272   321   277   1     98.60    KANGLE ; Oh-Cah-Oh
272   321   322   1     98.29    KANGLE ; Oh-Cah-Oh
272   321   1714  1     81.71    KANGLE ; Oh-Cah-Oh
272   321   1759  1     81.52    KANGLE ; Oh-Cah-Oh
272   321   1764  1     179.67   KANGLE ; Oh-Cah-Oh
277   321   322   1     98.32    KANGLE ; Oh-Cah-Oh
277   321   1714  1     81.68    KANGLE ; Oh-Cah-Oh
277   321   1759  1     179.78   KANGLE ; Oh-Cah-Oh
277   321   1764  1     81.68    KANGLE ; Oh-Cah-Oh
322   321   1714  1     180.00   KANGLE ; Oh-Cah-Oh
322   321   1759  1     81.49    KANGLE ; Oh-Cah-Oh
322   321   1764  1     81.49    KANGLE ; Oh-Cah-Oh
1714  321   1759  1     98.51    KANGLE ; Oh-Cah-Oh
1714  321   1764  1     98.51    KANGLE ; Oh-Cah-Oh
1759  321   1764  1     98.20    KANGLE ; Oh-Cah-Oh
6     322   11    1     98.42    KANGLE ; Cah-Oh-Cah
6     322   321   1     98.44    KANGLE ; Cah-Oh-Cah
6     322   323   1     110.00   125.52   ; Cah-Oh-H
11    322   321   1     98.47    KANGLE ; Cah-Oh-Cah
11    322   323   1     110.00   125.52   ; Cah-Oh-H
321   322   323   1     110.00   125.52   ; Cah-Oh-H
325   324   371   1     110.00   125.52   ; H-Oh-Cah
325   324   681   1     110.00   125.52   ; H-Oh-Cah
325   324   686   1     110.00   125.52   ; H-Oh-Cah
371   324   681   1     98.50    KANGLE ; Cah-Oh-Cah
371   324   686   1     98.50    KANGLE ; Cah-Oh-Cah
681   324   686   1     98.20    KANGLE ; Cah-Oh-Cah
277   326   282   1     98.45    KANGLE ; Oh-Cah-Oh
277   326   327   1     98.32    KANGLE ; Oh-Cah-Oh
277   326   1719  1     81.68    KANGLE ; Oh-Cah-Oh
277   326   1764  1     81.68    KANGLE ; Oh-Cah-Oh
277   326   1769  1     179.82   KANGLE ; Oh-Cah-Oh
282   326   327   1     98.32    KANGLE ; Oh-Cah-Oh
282   326   1719  1     81.68    KANGLE ; Oh-Cah-Oh
282   326   1764  1     179.78   KANGLE ; Oh-Cah-Oh
282   326   1769  1     81.52    KANGLE ; Oh-Cah-Oh
327   326   1719  1     180.00   KANGLE ; Oh-Cah-Oh
327   326   1764  1     81.49    KANGLE ; Oh-Cah-Oh
327   326   1769  1     81.51    KANGLE ; Oh-Cah-Oh
1719  326   1764  1     98.51    KANGLE ; Oh-Cah-Oh
1719  326   1769  1     98.49    KANGLE ; Oh-Cah-Oh
1764  326   1769  1     98.36    KANGLE ; Oh-Cah-Oh
11    327   16    1     98.26    KANGLE ; Cah-Oh-Cah
11    327   326   1     98.47    KANGLE ; Cah-Oh-Cah
11    327   328   1     110.00   125.52   ; Cah-Oh-H
16    327   326   1     98.47    KANGLE ; Cah-Oh-Cah
16    327   328   1     110.00   125.52   ; Cah-Oh-H
326   327   328   1     110.00   125.52   ; Cah-Oh-H
330   329   376   1     110.00   125.52   ; H-Oh-Cah
330   329   686   1     110.00   125.52   ; H-Oh-Cah
330   329   691   1     110.00   125.52   ; H-Oh-Cah
376   329   686   1     98.28    KANGLE ; Cah-Oh-Cah
376   329   691   1     98.68    KANGLE ; Cah-Oh-Cah
686   329   691   1     98.36    KANGLE ; Cah-Oh-Cah
282   331   287   1     98.60    KANGLE ; Oh-Cah-Oh
282   331   332   1     98.29    KANGLE ; Oh-Cah-Oh
282   331   1724  1     81.71    KANGLE ; Oh-Cah-Oh
282   331   1769  1     81.52    KANGLE ; Oh-Cah-Oh
282   331   1774  1     179.67   KANGLE ; Oh-Cah-Oh
287   331   332   1     98.32    KANGLE ; Oh-Cah-Oh
287   331   1724  1     81.68    KANGLE ; Oh-Cah-Oh
287   331   1769  1     179.78   KANGLE ; Oh-Cah-Oh
287   331   1774  1     81.68    KANGLE ; Oh-Cah-Oh
332   331   1724  1     180.00   KANGLE ; Oh-Cah-Oh
332   331   1769  1     81.49    KANGLE ; Oh-Cah-Oh
332   331   1774  1     81.49    KANGLE ; Oh-Cah-Oh
1724  331   1769  1     98.51    KANGLE ; Oh-Cah-Oh
1724  331   1774  1     98.51    KANGLE ; Oh-Cah-Oh
1769  331   1774  1     98.20    KANGLE ; Oh-Cah-Oh
16    332   21    1     98.42    KANGLE ; Cah-Oh-Cah
16    332   331   1     98.44    KANGLE ; Cah-Oh-Cah
16    332   333   1     110.00   125.52   ; Cah-Oh-H
21    332   331   1     98.47    KANGLE ; Cah-Oh-Cah
21    332   333   1     110.00   125.52   ; Cah-Oh-H
331   332   333   1     110.00   125.52   ; Cah-Oh-H
335   334   381   1     110.00   125.52   ; H-Oh-Cah
335   334   691   1     110.00   125.52   ; H-Oh-Cah
335   334   696   1     110.00   125.52   ; H-Oh-Cah
381   334   691   1     98.50    KANGLE ; Cah-Oh-Cah
381   334   696   1     98.50    KANGLE ; Cah-Oh-Cah
691   334   696   1     98.20    KANGLE ; Cah-Oh-Cah
287   336   292   1     98.45    KANGLE ; Oh-Cah-Oh
287   336   337   1     98.32    KANGLE ; Oh-Cah-Oh
287   336   1729  1     81.68    KANGLE ; Oh-Cah-Oh
287   336   1774  1     81.68    KANGLE ; Oh-Cah-Oh
287   336   1779  1     179.82   KANGLE ; Oh-Cah-Oh
292   336   337   1     98.32    KANGLE ; Oh-Cah-Oh
292   336   1729  1     81.68    KANGLE ; Oh-Cah-Oh
292   336   1774  1     179.78   KANGLE ; Oh-Cah-Oh
292   336   1779  1     81.52    KANGLE ; Oh-Cah-Oh
337   336   1729  1     180.00   KANGLE ; Oh-Cah-Oh
337   336   1774  1     81.49    KANGLE ; Oh-Cah-Oh
337   336   1779  1     81.51    KANGLE ; Oh-Cah-Oh
1729  336   1774  1     98.51    KANGLE ; Oh-Cah-Oh
1729  336   1779  1     98.49    KANGLE ; Oh-Cah-Oh
1774  336   1779  1     98.36    KANGLE ; Oh-Cah-Oh
21    337   26    1     98.26    KANGLE ; Cah-Oh-Cah
21    337   336   1     98.47    KANGLE ; Cah-Oh-Cah
21    337   338   1     110.00   125.52   ; Cah-Oh-H
26    337   336   1     98.47    KANGLE ; Cah-Oh-Cah
26    337   338   1     110.00   125.52   ; Cah-Oh-H
336   337   338   1     110.00   125.52   ; Cah-Oh-H
340   339   386   1     110.00   125.52   ; H-Oh-Cah
340   339   696   1     110.00   125.52   ; H-Oh-Cah
340   339   701   1     110.00   125.52   ; H-Oh-Cah
386   339   696   1     98.28    KANGLE ; Cah-Oh-Cah
386   339   701   1     98.68    KANGLE ; Cah-Oh-Cah
696   339   701   1     98.36    KANGLE ; Cah-Oh-Cah
292   341   297   1     98.60    KANGLE ; Oh-Cah-Oh
292   341   342   1     98.29    KANGLE ; Oh-Cah-Oh
292   341   1734  1     81.71    KANGLE ; Oh-Cah-Oh
292   341   1779  1     81.52    KANGLE ; Oh-Cah-Oh
292   341   1784  1     179.67   KANGLE ; Oh-Cah-Oh
297   341   342   1     98.32    KANGLE ; Oh-Cah-Oh
297   341   1734  1     81.68    KANGLE ; Oh-Cah-Oh
297   341   1779  1     179.78   KANGLE ; Oh-Cah-Oh
297   341   1784  1     81.68    KANGLE ; Oh-Cah-Oh
342   341   1734  1     180.00   KANGLE ; Oh-Cah-Oh
342   341   1779  1     81.49    KANGLE ; Oh-Cah-Oh
342   341   1784  1     81.49    KANGLE ; Oh-Cah-Oh
1734  341   1779  1     98.51    KANGLE ; Oh-Cah-Oh
1734  341   1784  1     98.51    KANGLE ; Oh-Cah-Oh
1779  341   1784  1     98.20    KANGLE ; Oh-Cah-Oh
26    342   31    1     98.42    KANGLE ; Cah-Oh-Cah
26    342   341   1     98.44    KANGLE ; Cah-Oh-Cah
26    342   343   1     110.00   125.52   ; Cah-Oh-H
31    342   341   1     98.47    KANGLE ; Cah-Oh-Cah
31    342   343   1     110.00   125.52   ; Cah-Oh-H
341   342   343   1     110.00   125.52   ; Cah-Oh-H
345   344   391   1     110.00   125.52   ; H-Oh-Cah
345   344   701   1     110.00   125.52   ; H-Oh-Cah
345   344   706   1     110.00   125.52   ; H-Oh-Cah
391   344   701   1     98.50    KANGLE ; Cah-Oh-Cah
391   344   706   1     98.50    KANGLE ; Cah-Oh-Cah
701   344   706   1     98.20    KANGLE ; Cah-Oh-Cah
297   346   302   1     98.45    KANGLE ; Oh-Cah-Oh
297   346   347   1     98.32    KANGLE ; Oh-Cah-Oh
297   346   1739  1     81.68    KANGLE ; Oh-Cah-Oh
297   346   1784  1     81.68    KANGLE ; Oh-Cah-Oh
297   346   1789  1     179.82   KANGLE ; Oh-Cah-Oh
302   346   347   1     98.32    KANGLE ; Oh-Cah-Oh
302   346   1739  1     81.68    KANGLE ; Oh-Cah-Oh
302   346   1784  1     179.78   KANGLE ; Oh-Cah-Oh
302   346   1789  1     81.52    KANGLE ; Oh-Cah-Oh
347   346   1739  1     180.00   KANGLE ; Oh-Cah-Oh
347   346   1784  1     81.49    KANGLE ; Oh-Cah-Oh
347   346   1789  1     81.51    KANGLE ; Oh-Cah-Oh
1739  346   1784  1     98.51    KANGLE ; Oh-Cah-Oh
1739  346   1789  1     98.49    KANGLE ; Oh-Cah-Oh
1784  346   1789  1     98.36    KANGLE ; Oh-Cah-Oh
31    347   36    1     98.42    KANGLE ; Cah-Oh-Cah
31    347   346   1     98.47    KANGLE ; Cah-Oh-Cah
31    347   348   1     110.00   125.52   ; Cah-Oh-H
36    347   346   1     98.44    KANGLE ; Cah-Oh-Cah
36    347   348   1     110.00   125.52   ; Cah-Oh-H
346   347   348   1     110.00   125.52   ; Cah-Oh-H
350   349   396   1     110.00   125.52   ; H-Oh-Cah
350   349   706   1     110.00   125.52   ; H-Oh-Cah
350   349   711   1     110.00   125.52   ; H-Oh-Cah
396   349   706   1     98.47    KANGLE ; Cah-Oh-Cah
396   349   711   1     98.50    KANGLE ; Cah-Oh-Cah
706   349   711   1     98.36    KANGLE ; Cah-Oh-Cah
302   351   307   1     98.60    KANGLE ; Oh-Cah-Oh
302   351   352   1     98.29    KANGLE ; Oh-Cah-Oh
302   351   1744  1     81.71    KANGLE ; Oh-Cah-Oh
302   351   1789  1     81.52    KANGLE ; Oh-Cah-Oh
302   351   1794  1     179.67   KANGLE ; Oh-Cah-Oh
307   351   352   1     98.32    KANGLE ; Oh-Cah-Oh
307   351   1744  1     81.68    KANGLE ; Oh-Cah-Oh
307   351   1789  1     179.78   KANGLE ; Oh-Cah-Oh
307   351   1794  1     81.68    KANGLE ; Oh-Cah-Oh
352   351   1744  1     180.00   KANGLE ; Oh-Cah-Oh
352   351   1789  1     81.49    KANGLE ; Oh-Cah-Oh
352   351   1794  1     81.49    KANGLE ; Oh-Cah-Oh
1744  351   1789  1     98.51    KANGLE ; Oh-Cah-Oh
1744  351   1794  1     98.51    KANGLE ; Oh-Cah-Oh
1789  351   1794  1     98.20    KANGLE ; Oh-Cah-Oh
36    352   41    1     98.26    KANGLE ; Cah-Oh-Cah
36    352   351   1     98.47    KANGLE ; Cah-Oh-Cah
36    352   353   1     110.00   125.52   ; Cah-Oh-H
41    352   351   1     98.47    KANGLE ; Cah-Oh-Cah
41    352   353   1     110.00   125.52   ; Cah-Oh-H
351   352   353   1     110.00   125.52   ; Cah-Oh-H
355   354   401   1     110.00   125.52   ; H-Oh-Cah
355   354   711   1     110.00   125.52   ; H-Oh-Cah
355   354   716   1     110.00   125.52   ; H-Oh-Cah
401   354   711   1     98.50    KANGLE ; Cah-Oh-Cah
401   354   716   1     98.50    KANGLE ; Cah-Oh-Cah
711   354   716   1     98.20    KANGLE ; Cah-Oh-Cah
307   356   312   1     98.45    KANGLE ; Oh-Cah-Oh
307   356   357   1     98.32    KANGLE ; Oh-Cah-Oh
307   356   1749  1     81.68    KANGLE ; Oh-Cah-Oh
307   356   1794  1     81.68    KANGLE ; Oh-Cah-Oh
307   356   1799  1     179.82   KANGLE ; Oh-Cah-Oh
312   356   357   1     98.32    KANGLE ; Oh-Cah-Oh
312   356   1749  1     81.68    KANGLE ; Oh-Cah-Oh
312   356   1794  1     179.78   KANGLE ; Oh-Cah-Oh
312   356   1799  1     81.52    KANGLE ; Oh-Cah-Oh
357   356   1749  1     180.00   KANGLE ; Oh-Cah-Oh
357   356   1794  1     81.49    KANGLE ; Oh-Cah-Oh
357   356   1799  1     81.51    KANGLE ; Oh-Cah-Oh
1749  356   1794  1     98.51    KANGLE ; Oh-Cah-Oh
1749  356   1799  1     98.49    KANGLE ; Oh-Cah-Oh
1794  356   1799  1     98.36    KANGLE ; Oh-Cah-Oh
1     357   41    1     98.34    KANGLE ; Cah-Oh-Cah
1     357   356   1     98.45    KANGLE ; Cah-Oh-Cah
1     357   358   1     110.00   125.52   ; Cah-Oh-H
41    357   356   1     98.47    KANGLE ; Cah-Oh-Cah
41    357   358   1     110.00   125.52   ; Cah-Oh-H
356   357   358   1     110.00   125.52   ; Cah-Oh-H
360   359   361   1     110.00   125.52   ; H-Oh-Cah
360   359   676   1     110.00   125.52   ; H-Oh-Cah
360   359   716   1     110.00   125.52   ; H-Oh-Cah
361   359   676   1     98.60    KANGLE ; Cah-Oh-Cah
361   359   716   1     98.38    KANGLE ; Cah-Oh-Cah
676   359   716   1     98.28    KANGLE ; Cah-Oh-Cah
4     361   44    1     98.28    KANGLE ; Oh-Cah-Oh
4     361   359   1     98.40    KANGLE ; Oh-Cah-Oh
4     361   362   1     81.62    KANGLE ; Oh-Cah-Oh
4     361   677   1     81.90    KANGLE ; Oh-Cah-Oh
4     361   717   1     179.79   KANGLE ; Oh-Cah-Oh
44    361   359   1     98.58    KANGLE ; Oh-Cah-Oh
44    361   362   1     81.63    KANGLE ; Oh-Cah-Oh
44    361   677   1     179.72   KANGLE ; Oh-Cah-Oh
44    361   717   1     81.75    KANGLE ; Oh-Cah-Oh
359   361   362   1     179.78   KANGLE ; Oh-Cah-Oh
359   361   677   1     81.59    KANGLE ; Oh-Cah-Oh
359   361   717   1     81.79    KANGLE ; Oh-Cah-Oh
362   361   677   1     98.19    KANGLE ; Oh-Cah-Oh
362   361   717   1     98.18    KANGLE ; Oh-Cah-Oh
677   361   717   1     98.07    KANGLE ; Oh-Cah-Oh
361   362   363   1     110.00   125.52   ; Cah-Oh-H
361   362   406   1     98.04    KANGLE ; Cah-Oh-Cah
361   362   411   1     98.04    KANGLE ; Cah-Oh-Cah
363   362   406   1     110.00   125.52   ; H-Oh-Cah
363   362   411   1     110.00   125.52   ; H-Oh-Cah
406   362   411   1     98.17    KANGLE ; Cah-Oh-Cah
365   364   721   1     110.00   125.52   ; H-Oh-Cah
365   364   726   1     110.00   125.52   ; H-Oh-Cah
365   364   771   1     110.00   125.52   ; H-Oh-Cah
721   364   726   1     98.09    KANGLE ; Cah-Oh-Cah
721   364   771   1     98.17    KANGLE ; Cah-Oh-Cah
726   364   771   1     98.14    KANGLE ; Cah-Oh-Cah
4     366   9     1     98.36    KANGLE ; Oh-Cah-Oh
4     366   319   1     98.47    KANGLE ; Oh-Cah-Oh
4     366   367   1     81.46    KANGLE ; Oh-Cah-Oh
4     366   677   1     81.59    KANGLE ; Oh-Cah-Oh
4     366   682   1     179.67   KANGLE ; Oh-Cah-Oh
9     366   319   1     98.50    KANGLE ; Oh-Cah-Oh
9     366   367   1     81.81    KANGLE ; Oh-Cah-Oh
9     366   677   1     179.79   KANGLE ; Oh-Cah-Oh
9     366   682   1     81.90    KANGLE ; Oh-Cah-Oh
319   366   367   1     179.70   KANGLE ; Oh-Cah-Oh
319   366   677   1     81.71    KANGLE ; Oh-Cah-Oh
319   366   682   1     81.69    KANGLE ; Oh-Cah-Oh
367   366   677   1     97.98    KANGLE ; Oh-Cah-Oh
367   366   682   1     98.38    KANGLE ; Oh-Cah-Oh
677   366   682   1     98.15    KANGLE ; Oh-Cah-Oh
366   367   368   1     110.00   125.52   ; Cah-Oh-H
366   367   411   1     98.23    KANGLE ; Cah-Oh-Cah
366   367   416   1     97.83    KANGLE ; Cah-Oh-Cah
368   367   411   1     110.00   125.52   ; H-Oh-Cah
368   367   416   1     110.00   125.52   ; H-Oh-Cah
411   367   416   1     98.33    KANGLE ; Cah-Oh-Cah
370   369   726   1     110.00   125.52   ; H-Oh-Cah
370   369   731   1     110.00   125.52   ; H-Oh-Cah
370   369   776   1     110.00   125.52   ; H-Oh-Cah
726   369   731   1     97.93    KANGLE ; Cah-Oh-Cah
726   369   776   1     98.17    KANGLE ; Cah-Oh-Cah
731   369   776   1     98.17    KANGLE ; Cah-Oh-Cah
9     371   14    1     98.20    KANGLE ; Oh-Cah-Oh
9     371   324   1     98.50    KANGLE ; Oh-Cah-Oh
9     371   372   1     81.62    KANGLE ; Oh-Cah-Oh
9     371   682   1     81.90    KANGLE ; Oh-Cah-Oh
9     371   687   1     179.77   KANGLE ; Oh-Cah-Oh
14    371   324   1     98.50    KANGLE ; Oh-Cah-Oh
14    371   372   1     81.62    KANGLE ; Oh-Cah-Oh
14    371   682   1     179.77   KANGLE ; Oh-Cah-Oh
14    371   687   1     81.90    KANGLE ; Oh-Cah-Oh
324   371   372   1     179.82   KANGLE ; Oh-Cah-Oh
324   371   682   1     81.69    KANGLE ; Oh-Cah-Oh
324   371   687   1     81.69    KANGLE ; Oh-Cah-Oh
372   371   682   1     98.19    KANGLE ; Oh-Cah-Oh
372   371   687   1     98.19    KANGLE ; Oh-Cah-Oh
682   371   687   1     97.99    KANGLE ; Oh-Cah-Oh
371   372   373   1     110.00   125.52   ; Cah-Oh-H
371   372   416   1     98.04    KANGLE ; Cah-Oh-Cah
371   372   421   1     98.04    KANGLE ; Cah-Oh-Cah
373   372   416   1     110.00   125.52   ; H-Oh-Cah
373   372   421   1     110.00   125.52   ; H-Oh-Cah
416   372   421   1     98.17    KANGLE ; Cah-Oh-Cah
375   374   731   1     110.00   125.52   ; H-Oh-Cah
375   374   736   1     110.00   125.52   ; H-Oh-Cah
375   374   781   1     110.00   125.52   ; H-Oh-Cah
731   374   736   1     97.93    KANGLE ; Cah-Oh-Cah
731   374   781   1     98.17    KANGLE ; Cah-Oh-Cah
736   374   781   1     98.17    KANGLE ; Cah-Oh-Cah
14    376   19    1     98.36    KANGLE ; Oh-Cah-Oh
14    376   329   1     98.68    KANGLE ; Oh-Cah-Oh
14    376   377   1     81.62    KANGLE ; Oh-Cah-Oh
14    376   687   1     81.90    KANGLE ; Oh-Cah-Oh
14    376   692   1     179.79   KANGLE ; Oh-Cah-Oh
19    376   329   1     98.28    KANGLE ; Oh-Cah-Oh
19    376   377   1     81.65    KANGLE ; Oh-Cah-Oh
19    376   687   1     179.67   KANGLE ; Oh-Cah-Oh
19    376   692   1     81.59    KANGLE ; Oh-Cah-Oh
329   376   377   1     179.70   KANGLE ; Oh-Cah-Oh
329   376   687   1     81.87    KANGLE ; Oh-Cah-Oh
329   376   692   1     81.53    KANGLE ; Oh-Cah-Oh
377   376   687   1     98.19    KANGLE ; Oh-Cah-Oh
377   376   692   1     98.17    KANGLE ; Oh-Cah-Oh
687   376   692   1     98.15    KANGLE ; Oh-Cah-Oh
376   377   378   1     110.00   125.52   ; Cah-Oh-H
376   377   421   1     98.04    KANGLE ; Cah-Oh-Cah
376   377   426   1     98.02    KANGLE ; Cah-Oh-Cah
378   377   421   1     110.00   125.52   ; H-Oh-Cah
378   377   426   1     110.00   125.52   ; H-Oh-Cah
421   377   426   1     98.33    KANGLE ; Cah-Oh-Cah
380   379   736   1     110.00   125.52   ; H-Oh-Cah
380   379   741   1     110.00   125.52   ; H-Oh-Cah
380   379   786   1     110.00   125.52   ; H-Oh-Cah
736   379   741   1     98.09    KANGLE ; Cah-Oh-Cah
736   379   786   1     98.14    KANGLE ; Cah-Oh-Cah
741   379   786   1     98.17    KANGLE ; Cah-Oh-Cah
19    381   24    1     98.20    KANGLE ; Oh-Cah-Oh
19    381   334   1     98.50    KANGLE ; Oh-Cah-Oh
19    381   382   1     81.62    KANGLE ; Oh-Cah-Oh
19    381   692   1     81.90    KANGLE ; Oh-Cah-Oh
19    381   697   1     179.77   KANGLE ; Oh-Cah-Oh
24    381   334   1     98.50    KANGLE ; Oh-Cah-Oh
24    381   382   1     81.62    KANGLE ; Oh-Cah-Oh
24    381   692   1     179.77   KANGLE ; Oh-Cah-Oh
24    381   697   1     81.90    KANGLE ; Oh-Cah-Oh
334   381   382   1     179.82   KANGLE ; Oh-Cah-Oh
334   381   692   1     81.69    KANGLE ; Oh-Cah-Oh
334   381   697   1     81.69    KANGLE ; Oh-Cah-Oh
382   381   692   1     98.19    KANGLE ; Oh-Cah-Oh
382   381   697   1     98.19    KANGLE ; Oh-Cah-Oh
692   381   697   1     97.99    KANGLE ; Oh-Cah-Oh
381   382   383   1     110.00   125.52   ; Cah-Oh-H
381   382   426   1     98.04    KANGLE ; Cah-Oh-Cah
381   382   431   1     98.04    KANGLE ; Cah-Oh-Cah
383   382   426   1     110.00   125.52   ; H-Oh-Cah
383   382   431   1     110.00   125.52   ; H-Oh-Cah
426   382   431   1     98.17    KANGLE ; Cah-Oh-Cah
385   384   741   1     110.00   125.52   ; H-Oh-Cah
385   384   746   1     110.00   125.52   ; H-Oh-Cah
385   384   791   1     110.00   125.52   ; H-Oh-Cah
741   384   746   1     97.93    KANGLE ; Cah-Oh-Cah
741   384   791   1     98.17    KANGLE ; Cah-Oh-Cah
746   384   791   1     98.17    KANGLE ; Cah-Oh-Cah
24    386   29    1     98.36    KANGLE ; Oh-Cah-Oh
24    386   339   1     98.68    KANGLE ; Oh-Cah-Oh
24    386   387   1     81.62    KANGLE ; Oh-Cah-Oh
24    386   697   1     81.90    KANGLE ; Oh-Cah-Oh
24    386   702   1     179.79   KANGLE ; Oh-Cah-Oh
29    386   339   1     98.28    KANGLE ; Oh-Cah-Oh
29    386   387   1     81.65    KANGLE ; Oh-Cah-Oh
29    386   697   1     179.67   KANGLE ; Oh-Cah-Oh
29    386   702   1     81.59    KANGLE ; Oh-Cah-Oh
339   386   387   1     179.70   KANGLE ; Oh-Cah-Oh
339   386   697   1     81.87    KANGLE ; Oh-Cah-Oh
339   386   702   1     81.53    KANGLE ; Oh-Cah-Oh
387   386   697   1     98.19    KANGLE ; Oh-Cah-Oh
387   386   702   1     98.17    KANGLE ; Oh-Cah-Oh
697   386   702   1     98.15    KANGLE ; Oh-Cah-Oh
386   387   388   1     110.00   125.52   ; Cah-Oh-H
386   387   431   1     98.04    KANGLE ; Cah-Oh-Cah
386   387   436   1     98.02    KANGLE ; Cah-Oh-Cah
388   387   431   1     110.00   125.52   ; H-Oh-Cah
388   387   436   1     110.00   125.52   ; H-Oh-Cah
431   387   436   1     98.33    KANGLE ; Cah-Oh-Cah
390   389   746   1     110.00   125.52   ; H-Oh-Cah
390   389   751   1     110.00   125.52   ; H-Oh-Cah
390   389   796   1     110.00   125.52   ; H-Oh-Cah
746   389   751   1     98.09    KANGLE ; Cah-Oh-Cah
746   389   796   1     98.14    KANGLE ; Cah-Oh-Cah
751   389   796   1     98.17    KANGLE ; Cah-Oh-Cah
29    391   34    1     98.20    KANGLE ; Oh-Cah-Oh
29    391   344   1     98.50    KANGLE ; Oh-Cah-Oh
29    391   392   1     81.62    KANGLE ; Oh-Cah-Oh
29    391   702   1     81.90    KANGLE ; Oh-Cah-Oh
29    391   707   1     179.77   KANGLE ; Oh-Cah-Oh
34    391   344   1     98.50    KANGLE ; Oh-Cah-Oh
34    391   392   1     81.62    KANGLE ; Oh-Cah-Oh
34    391   702   1     179.77   KANGLE ; Oh-Cah-Oh
34    391   707   1     81.90    KANGLE ; Oh-Cah-Oh
344   391   392   1     179.82   KANGLE ; Oh-Cah-Oh
344   391   702   1     81.69    KANGLE ; Oh-Cah-Oh
344   391   707   1     81.69    KANGLE ; Oh-Cah-Oh
392   391   702   1     98.19    KANGLE ; Oh-Cah-Oh
392   391   707   1     98.19    KANGLE ; Oh-Cah-Oh
702   391   707   1     97.99    KANGLE ; Oh-Cah-Oh
391   392   393   1     110.00   125.52   ; Cah-Oh-H
391   392   436   1     98.04    KANGLE ; Cah-Oh-Cah
391   392   441   1     98.04    KANGLE ; Cah-Oh-Cah
393   392   436   1     110.00   125.52   ; H-Oh-Cah
393   392   441   1     110.00   125.52   ; H-Oh-Cah
436   392   441   1     98.17    KANGLE ; Cah-Oh-Cah
395   394   751   1     110.00   125.52   ; H-Oh-Cah
395   394   756   1     110.00   125.52   ; H-Oh-Cah
395   394   801   1     110.00   125.52   ; H-Oh-Cah
751   394   756   1     98.09    KANGLE ; Cah-Oh-Cah
751   394   801   1     98.17    KANGLE ; Cah-Oh-Cah
756   394   801   1     98.14    KANGLE ; Cah-Oh-Cah
34    396   39    1     98.36    KANGLE ; Oh-Cah-Oh
34    396   349   1     98.47    KANGLE ; Oh-Cah-Oh
34    396   397   1     81.46    KANGLE ; Oh-Cah-Oh
34    396   707   1     81.59    KANGLE ; Oh-Cah-Oh
34    396   712   1     179.67   KANGLE ; Oh-Cah-Oh
39    396   349   1     98.50    KANGLE ; Oh-Cah-Oh
39    396   397   1     81.81    KANGLE ; Oh-Cah-Oh
39    396   707   1     179.79   KANGLE ; Oh-Cah-Oh
39    396   712   1     81.90    KANGLE ; Oh-Cah-Oh
349   396   397   1     179.70   KANGLE ; Oh-Cah-Oh
349   396   707   1     81.71    KANGLE ; Oh-Cah-Oh
349   396   712   1     81.69    KANGLE ; Oh-Cah-Oh
397   396   707   1     97.98    KANGLE ; Oh-Cah-Oh
397   396   712   1     98.38    KANGLE ; Oh-Cah-Oh
707   396   712   1     98.15    KANGLE ; Oh-Cah-Oh
396   397   398   1     110.00   125.52   ; Cah-Oh-H
396   397   441   1     98.23    KANGLE ; Cah-Oh-Cah
396   397   446   1     97.83    KANGLE ; Cah-Oh-Cah
398   397   441   1     110.00   125.52   ; H-Oh-Cah
398   397   446   1     110.00   125.52   ; H-Oh-Cah
441   397   446   1     98.33    KANGLE ; Cah-Oh-Cah
400   399   756   1     110.00   125.52   ; H-Oh-Cah
400   399   761   1     110.00   125.52   ; H-Oh-Cah
400   399   806   1     110.00   125.52   ; H-Oh-Cah
756   399   761   1     97.93    KANGLE ; Cah-Oh-Cah
756   399   806   1     98.17    KANGLE ; Cah-Oh-Cah
761   399   806   1     98.17    KANGLE ; Cah-Oh-Cah
39    401   44    1     98.20    KANGLE ; Oh-Cah-Oh
39    401   354   1     98.50    KANGLE ; Oh-Cah-Oh
39    401   402   1     81.62    KANGLE ; Oh-Cah-Oh
39    401   712   1     81.90    KANGLE ; Oh-Cah-Oh
39    401   717   1     179.77   KANGLE ; Oh-Cah-Oh
44    401   354   1     98.50    KANGLE ; Oh-Cah-Oh
44    401   402   1     81.62    KANGLE ; Oh-Cah-Oh
44    401   712   1     179.77   KANGLE ; Oh-Cah-Oh
44    401   717   1     81.91    KANGLE ; Oh-Cah-Oh
354   401   402   1     179.82   KANGLE ; Oh-Cah-Oh
354   401   712   1     81.69    KANGLE ; Oh-Cah-Oh
354   401   717   1     81.69    KANGLE ; Oh-Cah-Oh
402   401   712   1     98.19    KANGLE ; Oh-Cah-Oh
402   401   717   1     98.19    KANGLE ; Oh-Cah-Oh
712   401   717   1     97.99    KANGLE ; Oh-Cah-Oh
401   402   403   1     110.00   125.52   ; Cah-Oh-H
401   402   406   1     98.03    KANGLE ; Cah-Oh-Cah
401   402   446   1     98.04    KANGLE ; Cah-Oh-Cah
403   402   406   1     110.00   125.52   ; H-Oh-Cah
403   402   446   1     110.00   125.52   ; H-Oh-Cah
406   402   446   1     98.25    KANGLE ; Cah-Oh-Cah
405   404   721   1     110.00   125.52   ; H-Oh-Cah
405   404   761   1     110.00   125.52   ; H-Oh-Cah
405   404   766   1     110.00   125.52   ; H-Oh-Cah
721   404   761   1     98.01    KANGLE ; Cah-Oh-Cah
721   404   766   1     98.06    KANGLE ; Cah-Oh-Cah
761   404   766   1     98.26    KANGLE ; Cah-Oh-Cah
44    406   49    1     98.53    KANGLE ; Oh-Cah-Oh
44    406   89    1     98.33    KANGLE ; Oh-Cah-Oh
44    406   362   1     81.99    KANGLE ; Oh-Cah-Oh
44    406   402   1     81.82    KANGLE ; Oh-Cah-Oh
44    406   407   1     179.85   KANGLE ; Oh-Cah-Oh
49    406   89    1     98.28    KANGLE ; Oh-Cah-Oh
49    406   362   1     81.81    KANGLE ; Oh-Cah-Oh
49    406   402   1     179.65   KANGLE ; Oh-Cah-Oh
49    406   407   1     81.62    KANGLE ; Oh-Cah-Oh
89    406   362   1     179.65   KANGLE ; Oh-Cah-Oh
89    406   402   1     81.65    KANGLE ; Oh-Cah-Oh
89    406   407   1     81.63    KANGLE ; Oh-Cah-Oh
362   406   402   1     98.25    KANGLE ; Oh-Cah-Oh
362   406   407   1     98.04    KANGLE ; Oh-Cah-Oh
402   406   407   1     98.03    KANGLE ; Oh-Cah-Oh
406   407   408   1     110.00   125.52   ; Cah-Oh-H
406   407   451   1     98.24    KANGLE ; Cah-Oh-Cah
406   407   456   1     98.24    KANGLE ; Cah-Oh-Cah
408   407   451   1     110.00   125.52   ; H-Oh-Cah
408   407   456   1     110.00   125.52   ; H-Oh-Cah
451   407   456   1     97.93    KANGLE ; Cah-Oh-Cah
410   409   766   1     110.00   125.52   ; H-Oh-Cah
410   409   771   1     110.00   125.52   ; H-Oh-Cah
410   409   816   1     110.00   125.52   ; H-Oh-Cah
766   409   771   1     97.93    KANGLE ; Cah-Oh-Cah
766   409   816   1     98.24    KANGLE ; Cah-Oh-Cah
771   409   816   1     98.24    KANGLE ; Cah-Oh-Cah
4     411   49    1     98.44    KANGLE ; Oh-Cah-Oh
4     411   54    1     98.41    KANGLE ; Oh-Cah-Oh
4     411   362   1     81.90    KANGLE ; Oh-Cah-Oh
4     411   367   1     81.90    KANGLE ; Oh-Cah-Oh
4     411   412   1     179.91   KANGLE ; Oh-Cah-Oh
49    411   54    1     98.36    KANGLE ; Oh-Cah-Oh
49    411   362   1     81.81    KANGLE ; Oh-Cah-Oh
49    411   367   1     179.66   KANGLE ; Oh-Cah-Oh
49    411   412   1     81.62    KANGLE ; Oh-Cah-Oh
54    411   362   1     179.62   KANGLE ; Oh-Cah-Oh
54    411   367   1     81.65    KANGLE ; Oh-Cah-Oh
54    411   412   1     81.65    KANGLE ; Oh-Cah-Oh
362   411   367   1     98.17    KANGLE ; Oh-Cah-Oh
362   411   412   1     98.04    KANGLE ; Oh-Cah-Oh
367   411   412   1     98.04    KANGLE ; Oh-Cah-Oh
411   412   413   1     110.00   125.52   ; Cah-Oh-H
411   412   456   1     98.24    KANGLE ; Cah-Oh-Cah
411   412   461   1     98.22    KANGLE ; Cah-Oh-Cah
413   412   456   1     110.00   125.52   ; H-Oh-Cah
413   412   461   1     110.00   125.52   ; H-Oh-Cah
456   412   461   1     98.09    KANGLE ; Cah-Oh-Cah
415   414   771   1     110.00   125.52   ; H-Oh-Cah
415   414   776   1     110.00   125.52   ; H-Oh-Cah
415   414   821   1     110.00   125.52   ; H-Oh-Cah
771   414   776   1     98.09    KANGLE ; Cah-Oh-Cah
771   414   821   1     98.22    KANGLE ; Cah-Oh-Cah
776   414   821   1     98.24    KANGLE ; Cah-Oh-Cah
9     416   54    1     98.44    KANGLE ; Oh-Cah-Oh
9     416   59    1     98.44    KANGLE ; Oh-Cah-Oh
9     416   367   1     81.92    KANGLE ; Oh-Cah-Oh
9     416   372   1     81.90    KANGLE ; Oh-Cah-Oh
9     416   417   1     179.91   KANGLE ; Oh-Cah-Oh
54    416   59    1     98.20    KANGLE ; Oh-Cah-Oh
54    416   367   1     81.65    KANGLE ; Oh-Cah-Oh
54    416   372   1     179.66   KANGLE ; Oh-Cah-Oh
54    416   417   1     81.62    KANGLE ; Oh-Cah-Oh
59    416   367   1     179.63   KANGLE ; Oh-Cah-Oh
59    416   372   1     81.81    KANGLE ; Oh-Cah-Oh
59    416   417   1     81.62    KANGLE ; Oh-Cah-Oh
367   416   372   1     98.33    KANGLE ; Oh-Cah-Oh
367   416   417   1     98.02    KANGLE ; Oh-Cah-Oh
372   416   417   1     98.04    KANGLE ; Oh-Cah-Oh
416   417   418   1     110.00   125.52   ; Cah-Oh-H
416   417   461   1     98.24    KANGLE ; Cah-Oh-Cah
416   417   466   1     98.24    KANGLE ; Cah-Oh-Cah
418   417   461   1     110.00   125.52   ; H-Oh-Cah
418   417   466   1     110.00   125.52   ; H-Oh-Cah
461   417   466   1     97.93    KANGLE ; Cah-Oh-Cah
420   419   776   1     110.00   125.52   ; H-Oh-Cah
420   419   781   1     110.00   125.52   ; H-Oh-Cah
420   419   826   1     110.00   125.52   ; H-Oh-Cah
776   419   781   1     97.93    KANGLE ; Cah-Oh-Cah
776   419   826   1     98.24    KANGLE ; Cah-Oh-Cah
781   419   826   1     98.24    KANGLE ; Cah-Oh-Cah
14    421   59    1     98.44    KANGLE ; Oh-Cah-Oh
14    421   64    1     98.41    KANGLE ; Oh-Cah-Oh
14    421   372   1     81.90    KANGLE ; Oh-Cah-Oh
14    421   377   1     81.90    KANGLE ; Oh-Cah-Oh
14    421   422   1     179.91   KANGLE ; Oh-Cah-Oh
59    421   64    1     98.36    KANGLE ; Oh-Cah-Oh
59    421   372   1     81.81    KANGLE ; Oh-Cah-Oh
59    421   377   1     179.66   KANGLE ; Oh-Cah-Oh
59    421   422   1     81.62    KANGLE ; Oh-Cah-Oh
64    421   372   1     179.62   KANGLE ; Oh-Cah-Oh
64    421   377   1     81.65    KANGLE ; Oh-Cah-Oh
64    421   422   1     81.65    KANGLE ; Oh-Cah-Oh
372   421   377   1     98.17    KANGLE ; Oh-Cah-Oh
372   421   422   1     98.04    KANGLE ; Oh-Cah-Oh
377   421   422   1     98.04    KANGLE ; Oh-Cah-Oh
421   422   423   1     110.00   125.52   ; Cah-Oh-H
421   422   466   1     98.24    KANGLE ; Cah-Oh-Cah
421   422   471   1     98.22    KANGLE ; Cah-Oh-Cah
423   422   466   1     110.00   125.52   ; H-Oh-Cah
423   422   471   1     110.00   125.52   ; H-Oh-Cah
466   422   471   1     98.09    KANGLE ; Cah-Oh-Cah
425   424   781   1     110.00   125.52   ; H-Oh-Cah
425   424   786   1     110.00   125.52   ; H-Oh-Cah
425   424   831   1     110.00   125.52   ; H-Oh-Cah
781   424   786   1     98.09    KANGLE ; Cah-Oh-Cah
781   424   831   1     98.22    KANGLE ; Cah-Oh-Cah
786   424   831   1     98.24    KANGLE ; Cah-Oh-Cah
19    426   64    1     98.44    KANGLE ; Oh-Cah-Oh
19    426   69    1     98.44    KANGLE ; Oh-Cah-Oh
19    426   377   1     81.92    KANGLE ; Oh-Cah-Oh
19    426   382   1     81.90    KANGLE ; Oh-Cah-Oh
19    426   427   1     179.91   KANGLE ; Oh-Cah-Oh
64    426   69    1     98.20    KANGLE ; Oh-Cah-Oh
64    426   377   1     81.65    KANGLE ; Oh-Cah-Oh
64    426   382   1     179.66   KANGLE ; Oh-Cah-Oh
64    426   427   1     81.62    KANGLE ; Oh-Cah-Oh
69    426   377   1     179.63   KANGLE ; Oh-Cah-Oh
69    426   382   1     81.81    KANGLE ; Oh-Cah-Oh
69    426   427   1     81.62    KANGLE ; Oh-Cah-Oh
377   426   382   1     98.33    KANGLE ; Oh-Cah-Oh
377   426   427   1     98.02    KANGLE ; Oh-Cah-Oh
382   426   427   1     98.04    KANGLE ; Oh-Cah-Oh
426   427   428   1     110.00   125.52   ; Cah-Oh-H
426   427   471   1     98.24    KANGLE ; Cah-Oh-Cah
426   427   476   1     98.24    KANGLE ; Cah-Oh-Cah
428   427   471   1     110.00   125.52   ; H-Oh-Cah
428   427   476   1     110.00   125.52   ; H-Oh-Cah
471   427   476   1     97.93    KANGLE ; Cah-Oh-Cah
430   429   786   1     110.00   125.52   ; H-Oh-Cah
430   429   791   1     110.00   125.52   ; H-Oh-Cah
430   429   836   1     110.00   125.52   ; H-Oh-Cah
786   429   791   1     97.93    KANGLE ; Cah-Oh-Cah
786   429   836   1     98.24    KANGLE ; Cah-Oh-Cah
791   429   836   1     98.24    KANGLE ; Cah-Oh-Cah
24    431   69    1     98.44    KANGLE ; Oh-Cah-Oh
24    431   74    1     98.41    KANGLE ; Oh-Cah-Oh
24    431   382   1     81.90    KANGLE ; Oh-Cah-Oh
24    431   387   1     81.90    KANGLE ; Oh-Cah-Oh
24    431   432   1     179.91   KANGLE ; Oh-Cah-Oh
69    431   74    1     98.36    KANGLE ; Oh-Cah-Oh
69    431   382   1     81.81    KANGLE ; Oh-Cah-Oh
69    431   387   1     179.66   KANGLE ; Oh-Cah-Oh
69    431   432   1     81.62    KANGLE ; Oh-Cah-Oh
74    431   382   1     179.62   KANGLE ; Oh-Cah-Oh
74    431   387   1     81.65    KANGLE ; Oh-Cah-Oh
74    431   432   1     81.65    KANGLE ; Oh-Cah-Oh
382   431   387   1     98.17    KANGLE ; Oh-Cah-Oh
382   431   432   1     98.04    KANGLE ; Oh-Cah-Oh
387   431   432   1     98.04    KANGLE ; Oh-Cah-Oh
431   432   433   1     110.00   125.52   ; Cah-Oh-H
431   432   476   1     98.24    KANGLE ; Cah-Oh-Cah
431   432   481   1     98.24    KANGLE ; Cah-Oh-Cah
433   432   476   1     110.00   125.52   ; H-Oh-Cah
433   432   481   1     110.00   125.52   ; H-Oh-Cah
476   432   481   1     97.93    KANGLE ; Cah-Oh-Cah
435   434   791   1     110.00   125.52   ; H-Oh-Cah
435   434   796   1     110.00   125.52   ; H-Oh-Cah
435   434   841   1     110.00   125.52   ; H-Oh-Cah
791   434   796   1     98.09    KANGLE ; Cah-Oh-Cah
791   434   841   1     98.03    KANGLE ; Cah-Oh-Cah
796   434   841   1     98.43    KANGLE ; Cah-Oh-Cah
29    436   74    1     98.44    KANGLE ; Oh-Cah-Oh
29    436   79    1     98.44    KANGLE ; Oh-Cah-Oh
29    436   387   1     81.92    KANGLE ; Oh-Cah-Oh
29    436   392   1     81.90    KANGLE ; Oh-Cah-Oh
29    436   437   1     179.91   KANGLE ; Oh-Cah-Oh
74    436   79    1     98.20    KANGLE ; Oh-Cah-Oh
74    436   387   1     81.65    KANGLE ; Oh-Cah-Oh
74    436   392   1     179.66   KANGLE ; Oh-Cah-Oh
74    436   437   1     81.62    KANGLE ; Oh-Cah-Oh
79    436   387   1     179.63   KANGLE ; Oh-Cah-Oh
79    436   392   1     81.81    KANGLE ; Oh-Cah-Oh
79    436   437   1     81.62    KANGLE ; Oh-Cah-Oh
387   436   392   1     98.33    KANGLE ; Oh-Cah-Oh
387   436   437   1     98.02    KANGLE ; Oh-Cah-Oh
392   436   437   1     98.04    KANGLE ; Oh-Cah-Oh
436   437   438   1     110.00   125.52   ; Cah-Oh-H
436   437   481   1     98.22    KANGLE ; Cah-Oh-Cah
436   437   486   1     98.24    KANGLE ; Cah-Oh-Cah
438   437   481   1     110.00   125.52   ; H-Oh-Cah
438   437   486   1     110.00   125.52   ; H-Oh-Cah
481   437   486   1     98.09    KANGLE ; Cah-Oh-Cah
440   439   796   1     110.00   125.52   ; H-Oh-Cah
440   439   801   1     110.00   125.52   ; H-Oh-Cah
440   439   846   1     110.00   125.52   ; H-Oh-Cah
796   439   801   1     97.93    KANGLE ; Cah-Oh-Cah
796   439   846   1     98.24    KANGLE ; Cah-Oh-Cah
801   439   846   1     98.24    KANGLE ; Cah-Oh-Cah
34    441   79    1     98.44    KANGLE ; Oh-Cah-Oh
34    441   84    1     98.41    KANGLE ; Oh-Cah-Oh
34    441   392   1     81.90    KANGLE ; Oh-Cah-Oh
34    441   397   1     81.90    KANGLE ; Oh-Cah-Oh
34    441   442   1     179.91   KANGLE ; Oh-Cah-Oh
79    441   84    1     98.36    KANGLE ; Oh-Cah-Oh
79    441   392   1     81.81    KANGLE ; Oh-Cah-Oh
79    441   397   1     179.66   KANGLE ; Oh-Cah-Oh
79    441   442   1     81.62    KANGLE ; Oh-Cah-Oh
84    441   392   1     179.62   KANGLE ; Oh-Cah-Oh
84    441   397   1     81.65    KANGLE ; Oh-Cah-Oh
84    441   442   1     81.65    KANGLE ; Oh-Cah-Oh
392   441   397   1     98.17    KANGLE ; Oh-Cah-Oh
392   441   442   1     98.04    KANGLE ; Oh-Cah-Oh
397   441   442   1     98.04    KANGLE ; Oh-Cah-Oh
441   442   443   1     110.00   125.52   ; Cah-Oh-H
441   442   486   1     98.24    KANGLE ; Cah-Oh-Cah
441   442   491   1     98.22    KANGLE ; Cah-Oh-Cah
443   442   486   1     110.00   125.52   ; H-Oh-Cah
443   442   491   1     110.00   125.52   ; H-Oh-Cah
486   442   491   1     98.09    KANGLE ; Cah-Oh-Cah
445   444   801   1     110.00   125.52   ; H-Oh-Cah
445   444   806   1     110.00   125.52   ; H-Oh-Cah
445   444   851   1     110.00   125.52   ; H-Oh-Cah
801   444   806   1     98.09    KANGLE ; Cah-Oh-Cah
801   444   851   1     98.22    KANGLE ; Cah-Oh-Cah
806   444   851   1     98.24    KANGLE ; Cah-Oh-Cah
39    446   84    1     98.44    KANGLE ; Oh-Cah-Oh
39    446   89    1     98.44    KANGLE ; Oh-Cah-Oh
39    446   397   1     81.92    KANGLE ; Oh-Cah-Oh
39    446   402   1     81.90    KANGLE ; Oh-Cah-Oh
39    446   447   1     179.91   KANGLE ; Oh-Cah-Oh
84    446   89    1     98.20    KANGLE ; Oh-Cah-Oh
84    446   397   1     81.65    KANGLE ; Oh-Cah-Oh
84    446   402   1     179.66   KANGLE ; Oh-Cah-Oh
84    446   447   1     81.62    KANGLE ; Oh-Cah-Oh
89    446   397   1     179.63   KANGLE ; Oh-Cah-Oh
89    446   402   1     81.81    KANGLE ; Oh-Cah-Oh
89    446   447   1     81.62    KANGLE ; Oh-Cah-Oh
397   446   402   1     98.33    KANGLE ; Oh-Cah-Oh
397   446   447   1     98.02    KANGLE ; Oh-Cah-Oh
402   446   447   1     98.04    KANGLE ; Oh-Cah-Oh
446   447   448   1     110.00   125.52   ; Cah-Oh-H
446   447   451   1     98.23    KANGLE ; Cah-Oh-Cah
446   447   491   1     98.24    KANGLE ; Cah-Oh-Cah
448   447   451   1     110.00   125.52   ; H-Oh-Cah
448   447   491   1     110.00   125.52   ; H-Oh-Cah
451   447   491   1     98.01    KANGLE ; Cah-Oh-Cah
450   449   766   1     110.00   125.52   ; H-Oh-Cah
450   449   806   1     110.00   125.52   ; H-Oh-Cah
450   449   811   1     110.00   125.52   ; H-Oh-Cah
766   449   806   1     98.01    KANGLE ; Cah-Oh-Cah
766   449   811   1     98.14    KANGLE ; Cah-Oh-Cah
806   449   811   1     98.33    KANGLE ; Cah-Oh-Cah
89    451   94    1     98.41    KANGLE ; Oh-Cah-Oh
89    451   134   1     98.21    KANGLE ; Oh-Cah-Oh
89    451   407   1     81.71    KANGLE ; Oh-Cah-Oh
89    451   447   1     81.54    KANGLE ; Oh-Cah-Oh
89    451   452   1     179.58   KANGLE ; Oh-Cah-Oh
94    451   134   1     98.53    KANGLE ; Oh-Cah-Oh
94    451   407   1     81.81    KANGLE ; Oh-Cah-Oh
94    451   447   1     179.82   KANGLE ; Oh-Cah-Oh
94    451   452   1     82.00    KANGLE ; Oh-Cah-Oh
134   451   407   1     179.66   KANGLE ; Oh-Cah-Oh
134   451   447   1     81.65    KANGLE ; Oh-Cah-Oh
134   451   452   1     81.65    KANGLE ; Oh-Cah-Oh
407   451   447   1     98.01    KANGLE ; Oh-Cah-Oh
407   451   452   1     98.43    KANGLE ; Oh-Cah-Oh
447   451   452   1     98.04    KANGLE ; Oh-Cah-Oh
451   452   453   1     110.00   125.52   ; Cah-Oh-H
451   452   496   1     98.23    KANGLE ; Cah-Oh-Cah
451   452   501   1     97.83    KANGLE ; Cah-Oh-Cah
453   452   496   1     110.00   125.52   ; H-Oh-Cah
453   452   501   1     110.00   125.52   ; H-Oh-Cah
496   452   501   1     98.33    KANGLE ; Cah-Oh-Cah
455   454   811   1     110.00   125.52   ; H-Oh-Cah
455   454   816   1     110.00   125.52   ; H-Oh-Cah
455   454   861   1     110.00   125.52   ; H-Oh-Cah
811   454   816   1     98.17    KANGLE ; Cah-Oh-Cah
811   454   861   1     98.04    KANGLE ; Cah-Oh-Cah
816   454   861   1     98.04    KANGLE ; Cah-Oh-Cah
49    456   94    1     98.32    KANGLE ; Oh-Cah-Oh
49    456   99    1     98.32    KANGLE ; Oh-Cah-Oh
49    456   407   1     81.62    KANGLE ; Oh-Cah-Oh
49    456   412   1     81.62    KANGLE ; Oh-Cah-Oh
49    456   457   1     179.79   KANGLE ; Oh-Cah-Oh
94    456   99    1     98.45    KANGLE ; Oh-Cah-Oh
94    456   407   1     81.81    KANGLE ; Oh-Cah-Oh
94    456   412   1     179.74   KANGLE ; Oh-Cah-Oh
94    456   457   1     81.82    KANGLE ; Oh-Cah-Oh
99    456   407   1     179.74   KANGLE ; Oh-Cah-Oh
99    456   412   1     81.81    KANGLE ; Oh-Cah-Oh
99    456   457   1     81.82    KANGLE ; Oh-Cah-Oh
407   456   412   1     97.93    KANGLE ; Oh-Cah-Oh
407   456   457   1     98.24    KANGLE ; Oh-Cah-Oh
412   456   457   1     98.24    KANGLE ; Oh-Cah-Oh
456   457   458   1     110.00   125.52   ; Cah-Oh-H
456   457   501   1     98.04    KANGLE ; Cah-Oh-Cah
456   457   506   1     98.04    KANGLE ; Cah-Oh-Cah
458   457   501   1     110.00   125.52   ; H-Oh-Cah
458   457   506   1     110.00   125.52   ; H-Oh-Cah
501   457   506   1     98.17    KANGLE ; Cah-Oh-Cah
460   459   816   1     110.00   125.52   ; H-Oh-Cah
460   459   821   1     110.00   125.52   ; H-Oh-Cah
460   459   866   1     110.00   125.52   ; H-Oh-Cah
816   459   821   1     98.33    KANGLE ; Cah-Oh-Cah
816   459   866   1     98.04    KANGLE ; Cah-Oh-Cah
821   459   866   1     98.02    KANGLE ; Cah-Oh-Cah
54    461   99    1     98.29    KANGLE ; Oh-Cah-Oh
54    461   104   1     98.32    KANGLE ; Oh-Cah-Oh
54    461   412   1     81.65    KANGLE ; Oh-Cah-Oh
54    461   417   1     81.62    KANGLE ; Oh-Cah-Oh
54    461   462   1     179.68   KANGLE ; Oh-Cah-Oh
99    461   104   1     98.60    KANGLE ; Oh-Cah-Oh
99    461   412   1     81.50    KANGLE ; Oh-Cah-Oh
99    461   417   1     179.58   KANGLE ; Oh-Cah-Oh
99    461   462   1     81.66    KANGLE ; Oh-Cah-Oh
104   461   412   1     179.90   KANGLE ; Oh-Cah-Oh
104   461   417   1     81.81    KANGLE ; Oh-Cah-Oh
104   461   462   1     82.00    KANGLE ; Oh-Cah-Oh
412   461   417   1     98.09    KANGLE ; Oh-Cah-Oh
412   461   462   1     98.03    KANGLE ; Oh-Cah-Oh
417   461   462   1     98.43    KANGLE ; Oh-Cah-Oh
461   462   463   1     110.00   125.52   ; Cah-Oh-H
461   462   506   1     98.23    KANGLE ; Cah-Oh-Cah
461   462   511   1     97.83    KANGLE ; Cah-Oh-Cah
463   462   506   1     110.00   125.52   ; H-Oh-Cah
463   462   511   1     110.00   125.52   ; H-Oh-Cah
506   462   511   1     98.33    KANGLE ; Cah-Oh-Cah
465   464   821   1     110.00   125.52   ; H-Oh-Cah
465   464   826   1     110.00   125.52   ; H-Oh-Cah
465   464   871   1     110.00   125.52   ; H-Oh-Cah
821   464   826   1     98.17    KANGLE ; Cah-Oh-Cah
821   464   871   1     98.04    KANGLE ; Cah-Oh-Cah
826   464   871   1     98.04    KANGLE ; Cah-Oh-Cah
59    466   104   1     98.32    KANGLE ; Oh-Cah-Oh
59    466   109   1     98.32    KANGLE ; Oh-Cah-Oh
59    466   417   1     81.62    KANGLE ; Oh-Cah-Oh
59    466   422   1     81.62    KANGLE ; Oh-Cah-Oh
59    466   467   1     179.79   KANGLE ; Oh-Cah-Oh
104   466   109   1     98.45    KANGLE ; Oh-Cah-Oh
104   466   417   1     81.81    KANGLE ; Oh-Cah-Oh
104   466   422   1     179.74   KANGLE ; Oh-Cah-Oh
104   466   467   1     81.82    KANGLE ; Oh-Cah-Oh
109   466   417   1     179.74   KANGLE ; Oh-Cah-Oh
109   466   422   1     81.81    KANGLE ; Oh-Cah-Oh
109   466   467   1     81.82    KANGLE ; Oh-Cah-Oh
417   466   422   1     97.93    KANGLE ; Oh-Cah-Oh
417   466   467   1     98.24    KANGLE ; Oh-Cah-Oh
422   466   467   1     98.24    KANGLE ; Oh-Cah-Oh
466   467   468   1     110.00   125.52   ; Cah-Oh-H
466   467   511   1     98.04    KANGLE ; Cah-Oh-Cah
466   467   516   1     98.04    KANGLE ; Cah-Oh-Cah
468   467   511   1     110.00   125.52   ; H-Oh-Cah
468   467   516   1     110.00   125.52   ; H-Oh-Cah
511   467   516   1     98.17    KANGLE ; Cah-Oh-Cah
470   469   826   1     110.00   125.52   ; H-Oh-Cah
470   469   831   1     110.00   125.52   ; H-Oh-Cah
470   469   876   1     110.00   125.52   ; H-Oh-Cah
826   469   831   1     98.33    KANGLE ; Cah-Oh-Cah
826   469   876   1     98.04    KANGLE ; Cah-Oh-Cah
831   469   876   1     98.02    KANGLE ; Cah-Oh-Cah
64    471   109   1     98.29    KANGLE ; Oh-Cah-Oh
64    471   114   1     98.32    KANGLE ; Oh-Cah-Oh
64    471   422   1     81.65    KANGLE ; Oh-Cah-Oh
64    471   427   1     81.62    KANGLE ; Oh-Cah-Oh
64    471   472   1     179.68   KANGLE ; Oh-Cah-Oh
109   471   114   1     98.60    KANGLE ; Oh-Cah-Oh
109   471   422   1     81.50    KANGLE ; Oh-Cah-Oh
109   471   427   1     179.58   KANGLE ; Oh-Cah-Oh
109   471   472   1     81.66    KANGLE ; Oh-Cah-Oh
114   471   422   1     179.90   KANGLE ; Oh-Cah-Oh
114   471   427   1     81.81    KANGLE ; Oh-Cah-Oh
114   471   472   1     82.00    KANGLE ; Oh-Cah-Oh
422   471   427   1     98.09    KANGLE ; Oh-Cah-Oh
422   471   472   1     98.03    KANGLE ; Oh-Cah-Oh
427   471   472   1     98.43    KANGLE ; Oh-Cah-Oh
471   472   473   1     110.00   125.52   ; Cah-Oh-H
471   472   516   1     98.23    KANGLE ; Cah-Oh-Cah
471   472   521   1     97.83    KANGLE ; Cah-Oh-Cah
473   472   516   1     110.00   125.52   ; H-Oh-Cah
473   472   521   1     110.00   125.52   ; H-Oh-Cah
516   472   521   1     98.33    KANGLE ; Cah-Oh-Cah
475   474   831   1     110.00   125.52   ; H-Oh-Cah
475   474   836   1     110.00   125.52   ; H-Oh-Cah
475   474   881   1     110.00   125.52   ; H-Oh-Cah
831   474   836   1     98.17    KANGLE ; Cah-Oh-Cah
831   474   881   1     98.04    KANGLE ; Cah-Oh-Cah
836   474   881   1     98.04    KANGLE ; Cah-Oh-Cah
69    476   114   1     98.32    KANGLE ; Oh-Cah-Oh
69    476   119   1     98.32    KANGLE ; Oh-Cah-Oh
69    476   427   1     81.62    KANGLE ; Oh-Cah-Oh
69    476   432   1     81.62    KANGLE ; Oh-Cah-Oh
69    476   477   1     179.79   KANGLE ; Oh-Cah-Oh
114   476   119   1     98.45    KANGLE ; Oh-Cah-Oh
114   476   427   1     81.81    KANGLE ; Oh-Cah-Oh
114   476   432   1     179.74   KANGLE ; Oh-Cah-Oh
114   476   477   1     81.82    KANGLE ; Oh-Cah-Oh
119   476   427   1     179.74   KANGLE ; Oh-Cah-Oh
119   476   432   1     81.81    KANGLE ; Oh-Cah-Oh
119   476   477   1     81.82    KANGLE ; Oh-Cah-Oh
427   476   432   1     97.93    KANGLE ; Oh-Cah-Oh
427   476   477   1     98.24    KANGLE ; Oh-Cah-Oh
432   476   477   1     98.24    KANGLE ; Oh-Cah-Oh
476   477   478   1     110.00   125.52   ; Cah-Oh-H
476   477   521   1     98.04    KANGLE ; Cah-Oh-Cah
476   477   526   1     98.04    KANGLE ; Cah-Oh-Cah
478   477   521   1     110.00   125.52   ; H-Oh-Cah
478   477   526   1     110.00   125.52   ; H-Oh-Cah
521   477   526   1     98.17    KANGLE ; Cah-Oh-Cah
480   479   836   1     110.00   125.52   ; H-Oh-Cah
480   479   841   1     110.00   125.52   ; H-Oh-Cah
480   479   886   1     110.00   125.52   ; H-Oh-Cah
836   479   841   1     98.17    KANGLE ; Cah-Oh-Cah
836   479   886   1     98.04    KANGLE ; Cah-Oh-Cah
841   479   886   1     98.04    KANGLE ; Cah-Oh-Cah
74    481   119   1     98.50    KANGLE ; Oh-Cah-Oh
74    481   124   1     98.10    KANGLE ; Oh-Cah-Oh
74    481   432   1     81.81    KANGLE ; Oh-Cah-Oh
74    481   437   1     81.46    KANGLE ; Oh-Cah-Oh
74    481   482   1     179.68   KANGLE ; Oh-Cah-Oh
119   481   124   1     98.60    KANGLE ; Oh-Cah-Oh
119   481   432   1     81.81    KANGLE ; Oh-Cah-Oh
119   481   437   1     179.90   KANGLE ; Oh-Cah-Oh
119   481   482   1     81.82    KANGLE ; Oh-Cah-Oh
124   481   432   1     179.58   KANGLE ; Oh-Cah-Oh
124   481   437   1     81.50    KANGLE ; Oh-Cah-Oh
124   481   482   1     81.85    KANGLE ; Oh-Cah-Oh
432   481   437   1     98.09    KANGLE ; Oh-Cah-Oh
432   481   482   1     98.24    KANGLE ; Oh-Cah-Oh
437   481   482   1     98.22    KANGLE ; Oh-Cah-Oh
481   482   483   1     110.00   125.52   ; Cah-Oh-H
481   482   526   1     98.04    KANGLE ; Cah-Oh-Cah
481   482   531   1     98.02    KANGLE ; Cah-Oh-Cah
483   482   526   1     110.00   125.52   ; H-Oh-Cah
483   482   531   1     110.00   125.52   ; H-Oh-Cah
526   482   531   1     98.33    KANGLE ; Cah-Oh-Cah
485   484   841   1     110.00   125.52   ; H-Oh-Cah
485   484   846   1     110.00   125.52   ; H-Oh-Cah
485   484   891   1     110.00   125.52   ; H-Oh-Cah
841   484   846   1     98.33    KANGLE ; Cah-Oh-Cah
841   484   891   1     98.02    KANGLE ; Cah-Oh-Cah
846   484   891   1     98.04    KANGLE ; Cah-Oh-Cah
79    486   124   1     98.32    KANGLE ; Oh-Cah-Oh
79    486   129   1     98.32    KANGLE ; Oh-Cah-Oh
79    486   437   1     81.62    KANGLE ; Oh-Cah-Oh
79    486   442   1     81.62    KANGLE ; Oh-Cah-Oh
79    486   487   1     179.79   KANGLE ; Oh-Cah-Oh
124   486   129   1     98.45    KANGLE ; Oh-Cah-Oh
124   486   437   1     81.81    KANGLE ; Oh-Cah-Oh
124   486   442   1     179.74   KANGLE ; Oh-Cah-Oh
124   486   487   1     81.82    KANGLE ; Oh-Cah-Oh
129   486   437   1     179.74   KANGLE ; Oh-Cah-Oh
129   486   442   1     81.81    KANGLE ; Oh-Cah-Oh
129   486   487   1     81.82    KANGLE ; Oh-Cah-Oh
437   486   442   1     97.93    KANGLE ; Oh-Cah-Oh
437   486   487   1     98.24    KANGLE ; Oh-Cah-Oh
442   486   487   1     98.24    KANGLE ; Oh-Cah-Oh
486   487   488   1     110.00   125.52   ; Cah-Oh-H
486   487   531   1     98.04    KANGLE ; Cah-Oh-Cah
486   487   536   1     98.04    KANGLE ; Cah-Oh-Cah
488   487   531   1     110.00   125.52   ; H-Oh-Cah
488   487   536   1     110.00   125.52   ; H-Oh-Cah
531   487   536   1     98.17    KANGLE ; Cah-Oh-Cah
490   489   846   1     110.00   125.52   ; H-Oh-Cah
490   489   851   1     110.00   125.52   ; H-Oh-Cah
490   489   896   1     110.00   125.52   ; H-Oh-Cah
846   489   851   1     98.33    KANGLE ; Cah-Oh-Cah
846   489   896   1     98.04    KANGLE ; Cah-Oh-Cah
851   489   896   1     98.02    KANGLE ; Cah-Oh-Cah
84    491   129   1     98.29    KANGLE ; Oh-Cah-Oh
84    491   134   1     98.32    KANGLE ; Oh-Cah-Oh
84    491   442   1     81.65    KANGLE ; Oh-Cah-Oh
84    491   447   1     81.62    KANGLE ; Oh-Cah-Oh
84    491   492   1     179.68   KANGLE ; Oh-Cah-Oh
129   491   134   1     98.60    KANGLE ; Oh-Cah-Oh
129   491   442   1     81.50    KANGLE ; Oh-Cah-Oh
129   491   447   1     179.58   KANGLE ; Oh-Cah-Oh
129   491   492   1     81.66    KANGLE ; Oh-Cah-Oh
134   491   442   1     179.90   KANGLE ; Oh-Cah-Oh
134   491   447   1     81.81    KANGLE ; Oh-Cah-Oh
134   491   492   1     82.00    KANGLE ; Oh-Cah-Oh
442   491   447   1     98.09    KANGLE ; Oh-Cah-Oh
442   491   492   1     98.03    KANGLE ; Oh-Cah-Oh
447   491   492   1     98.43    KANGLE ; Oh-Cah-Oh
491   492   493   1     110.00   125.52   ; Cah-Oh-H
491   492   496   1     97.85    KANGLE ; Cah-Oh-Cah
491   492   536   1     98.23    KANGLE ; Cah-Oh-Cah
493   492   496   1     110.00   125.52   ; H-Oh-Cah
493   492   536   1     110.00   125.52   ; H-Oh-Cah
496   492   536   1     98.25    KANGLE ; Cah-Oh-Cah
495   494   811   1     110.00   125.52   ; H-Oh-Cah
495   494   851   1     110.00   125.52   ; H-Oh-Cah
495   494   856   1     110.00   125.52   ; H-Oh-Cah
811   494   851   1     98.25    KANGLE ; Cah-Oh-Cah
811   494   856   1     98.12    KANGLE ; Cah-Oh-Cah
851   494   856   1     97.95    KANGLE ; Cah-Oh-Cah
134   496   139   1     98.39    KANGLE ; Oh-Cah-Oh
134   496   179   1     98.62    KANGLE ; Oh-Cah-Oh
134   496   452   1     81.73    KANGLE ; Oh-Cah-Oh
134   496   492   1     81.93    KANGLE ; Oh-Cah-Oh
134   496   497   1     179.76   KANGLE ; Oh-Cah-Oh
139   496   179   1     98.28    KANGLE ; Oh-Cah-Oh
139   496   452   1     81.65    KANGLE ; Oh-Cah-Oh
139   496   492   1     179.65   KANGLE ; Oh-Cah-Oh
139   496   497   1     81.65    KANGLE ; Oh-Cah-Oh
179   496   452   1     179.65   KANGLE ; Oh-Cah-Oh
179   496   492   1     81.81    KANGLE ; Oh-Cah-Oh
179   496   497   1     81.61    KANGLE ; Oh-Cah-Oh
452   496   492   1     98.25    KANGLE ; Oh-Cah-Oh
452   496   497   1     98.04    KANGLE ; Oh-Cah-Oh
492   496   497   1     98.03    KANGLE ; Oh-Cah-Oh
496   497   498   1     110.00   125.52   ; Cah-Oh-H
496   497   541   1     98.24    KANGLE ; Cah-Oh-Cah
496   497   546   1     98.22    KANGLE ; Cah-Oh-Cah
498   497   541   1     110.00   125.52   ; H-Oh-Cah
498   497   546   1     110.00   125.52   ; H-Oh-Cah
541   497   546   1     98.09    KANGLE ; Cah-Oh-Cah
500   499   856   1     110.00   125.52   ; H-Oh-Cah
500   499   861   1     110.00   125.52   ; H-Oh-Cah
500   499   906   1     110.00   125.52   ; H-Oh-Cah
856   499   861   1     98.09    KANGLE ; Cah-Oh-Cah
856   499   906   1     98.22    KANGLE ; Cah-Oh-Cah
861   499   906   1     98.24    KANGLE ; Cah-Oh-Cah
94    501   139   1     98.51    KANGLE ; Oh-Cah-Oh
94    501   144   1     98.51    KANGLE ; Oh-Cah-Oh
94    501   452   1     81.85    KANGLE ; Oh-Cah-Oh
94    501   457   1     81.82    KANGLE ; Oh-Cah-Oh
94    501   502   1     179.79   KANGLE ; Oh-Cah-Oh
139   501   144   1     98.20    KANGLE ; Oh-Cah-Oh
139   501   452   1     81.65    KANGLE ; Oh-Cah-Oh
139   501   457   1     179.66   KANGLE ; Oh-Cah-Oh
139   501   502   1     81.62    KANGLE ; Oh-Cah-Oh
144   501   452   1     179.63   KANGLE ; Oh-Cah-Oh
144   501   457   1     81.81    KANGLE ; Oh-Cah-Oh
144   501   502   1     81.62    KANGLE ; Oh-Cah-Oh
452   501   457   1     98.33    KANGLE ; Oh-Cah-Oh
452   501   502   1     98.02    KANGLE ; Oh-Cah-Oh
457   501   502   1     98.04    KANGLE ; Oh-Cah-Oh
501   502   503   1     110.00   125.52   ; Cah-Oh-H
501   502   546   1     98.24    KANGLE ; Cah-Oh-Cah
501   502   551   1     98.24    KANGLE ; Cah-Oh-Cah
503   502   546   1     110.00   125.52   ; H-Oh-Cah
503   502   551   1     110.00   125.52   ; H-Oh-Cah
546   502   551   1     97.93    KANGLE ; Cah-Oh-Cah
505   504   861   1     110.00   125.52   ; H-Oh-Cah
505   504   866   1     110.00   125.52   ; H-Oh-Cah
505   504   911   1     110.00   125.52   ; H-Oh-Cah
861   504   866   1     97.93    KANGLE ; Cah-Oh-Cah
861   504   911   1     98.24    KANGLE ; Cah-Oh-Cah
866   504   911   1     98.24    KANGLE ; Cah-Oh-Cah
99    506   144   1     98.51    KANGLE ; Oh-Cah-Oh
99    506   149   1     98.49    KANGLE ; Oh-Cah-Oh
99    506   457   1     81.82    KANGLE ; Oh-Cah-Oh
99    506   462   1     81.82    KANGLE ; Oh-Cah-Oh
99    506   507   1     179.79   KANGLE ; Oh-Cah-Oh
144   506   149   1     98.36    KANGLE ; Oh-Cah-Oh
144   506   457   1     81.81    KANGLE ; Oh-Cah-Oh
144   506   462   1     179.66   KANGLE ; Oh-Cah-Oh
144   506   507   1     81.62    KANGLE ; Oh-Cah-Oh
149   506   457   1     179.62   KANGLE ; Oh-Cah-Oh
149   506   462   1     81.65    KANGLE ; Oh-Cah-Oh
149   506   507   1     81.65    KANGLE ; Oh-Cah-Oh
457   506   462   1     98.17    KANGLE ; Oh-Cah-Oh
457   506   507   1     98.04    KANGLE ; Oh-Cah-Oh
462   506   507   1     98.04    KANGLE ; Oh-Cah-Oh
506   507   508   1     110.00   125.52   ; Cah-Oh-H
506   507   551   1     98.24    KANGLE ; Cah-Oh-Cah
506   507   556   1     98.22    KANGLE ; Cah-Oh-Cah
508   507   551   1     110.00   125.52   ; H-Oh-Cah
508   507   556   1     110.00   125.52   ; H-Oh-Cah
551   507   556   1     98.09    KANGLE ; Cah-Oh-Cah
510   509   866   1     110.00   125.52   ; H-Oh-Cah
510   509   871   1     110.00   125.52   ; H-Oh-Cah
510   509   916   1     110.00   125.52   ; H-Oh-Cah
866   509   871   1     98.09    KANGLE ; Cah-Oh-Cah
866   509   916   1     98.22    KANGLE ; Cah-Oh-Cah
871   509   916   1     98.24    KANGLE ; Cah-Oh-Cah
104   511   149   1     98.51    KANGLE ; Oh-Cah-Oh
104   511   154   1     98.51    KANGLE ; Oh-Cah-Oh
104   511   462   1     81.85    KANGLE ; Oh-Cah-Oh
104   511   467   1     81.82    KANGLE ; Oh-Cah-Oh
104   511   512   1     179.79   KANGLE ; Oh-Cah-Oh
149   511   154   1     98.20    KANGLE ; Oh-Cah-Oh
149   511   462   1     81.65    KANGLE ; Oh-Cah-Oh
149   511   467   1     179.66   KANGLE ; Oh-Cah-Oh
149   511   512   1     81.62    KANGLE ; Oh-Cah-Oh
154   511   462   1     179.63   KANGLE ; Oh-Cah-Oh
154   511   467   1     81.81    KANGLE ; Oh-Cah-Oh
154   511   512   1     81.62    KANGLE ; Oh-Cah-Oh
462   511   467   1     98.33    KANGLE ; Oh-Cah-Oh
462   511   512   1     98.02    KANGLE ; Oh-Cah-Oh
467   511   512   1     98.04    KANGLE ; Oh-Cah-Oh
511   512   513   1     110.00   125.52   ; Cah-Oh-H
511   512   556   1     98.24    KANGLE ; Cah-Oh-Cah
511   512   561   1     98.24    KANGLE ; Cah-Oh-Cah
513   512   556   1     110.00   125.52   ; H-Oh-Cah
513   512   561   1     110.00   125.52   ; H-Oh-Cah
556   512   561   1     97.93    KANGLE ; Cah-Oh-Cah
515   514   871   1     110.00   125.52   ; H-Oh-Cah
515   514   876   1     110.00   125.52   ; H-Oh-Cah
515   514   921   1     110.00   125.52   ; H-Oh-Cah
871   514   876   1     97.93    KANGLE ; Cah-Oh-Cah
871   514   921   1     98.24    KANGLE ; Cah-Oh-Cah
876   514   921   1     98.24    KANGLE ; Cah-Oh-Cah
109   516   154   1     98.51    KANGLE ; Oh-Cah-Oh
109   516   159   1     98.49    KANGLE ; Oh-Cah-Oh
109   516   467   1     81.82    KANGLE ; Oh-Cah-Oh
109   516   472   1     81.82    KANGLE ; Oh-Cah-Oh
109   516   517   1     179.79   KANGLE ; Oh-Cah-Oh
154   516   159   1     98.36    KANGLE ; Oh-Cah-Oh
154   516   467   1     81.81    KANGLE ; Oh-Cah-Oh
154   516   472   1     179.66   KANGLE ; Oh-Cah-Oh
154   516   517   1     81.62    KANGLE ; Oh-Cah-Oh
159   516   467   1     179.62   KANGLE ; Oh-Cah-Oh
159   516   472   1     81.65    KANGLE ; Oh-Cah-Oh
159   516   517   1     81.65    KANGLE ; Oh-Cah-Oh
467   516   472   1     98.17    KANGLE ; Oh-Cah-Oh
467   516   517   1     98.04    KANGLE ; Oh-Cah-Oh
472   516   517   1     98.04    KANGLE ; Oh-Cah-Oh
516   517   518   1     110.00   125.52   ; Cah-Oh-H
516   517   561   1     98.24    KANGLE ; Cah-Oh-Cah
516   517   566   1     98.22    KANGLE ; Cah-Oh-Cah
518   517   561   1     110.00   125.52   ; H-Oh-Cah
518   517   566   1     110.00   125.52   ; H-Oh-Cah
561   517   566   1     98.09    KANGLE ; Cah-Oh-Cah
520   519   876   1     110.00   125.52   ; H-Oh-Cah
520   519   881   1     110.00   125.52   ; H-Oh-Cah
520   519   926   1     110.00   125.52   ; H-Oh-Cah
876   519   881   1     98.09    KANGLE ; Cah-Oh-Cah
876   519   926   1     98.22    KANGLE ; Cah-Oh-Cah
881   519   926   1     98.24    KANGLE ; Cah-Oh-Cah
114   521   159   1     98.51    KANGLE ; Oh-Cah-Oh
114   521   164   1     98.51    KANGLE ; Oh-Cah-Oh
114   521   472   1     81.85    KANGLE ; Oh-Cah-Oh
114   521   477   1     81.82    KANGLE ; Oh-Cah-Oh
114   521   522   1     179.79   KANGLE ; Oh-Cah-Oh
159   521   164   1     98.20    KANGLE ; Oh-Cah-Oh
159   521   472   1     81.65    KANGLE ; Oh-Cah-Oh
159   521   477   1     179.66   KANGLE ; Oh-Cah-Oh
159   521   522   1     81.62    KANGLE ; Oh-Cah-Oh
164   521   472   1     179.63   KANGLE ; Oh-Cah-Oh
164   521   477   1     81.81    KANGLE ; Oh-Cah-Oh
164   521   522   1     81.62    KANGLE ; Oh-Cah-Oh
472   521   477   1     98.33    KANGLE ; Oh-Cah-Oh
472   521   522   1     98.02    KANGLE ; Oh-Cah-Oh
477   521   522   1     98.04    KANGLE ; Oh-Cah-Oh
521   522   523   1     110.00   125.52   ; Cah-Oh-H
521   522   566   1     98.24    KANGLE ; Cah-Oh-Cah
521   522   571   1     98.24    KANGLE ; Cah-Oh-Cah
523   522   566   1     110.00   125.52   ; H-Oh-Cah
523   522   571   1     110.00   125.52   ; H-Oh-Cah
566   522   571   1     97.93    KANGLE ; Cah-Oh-Cah
525   524   881   1     110.00   125.52   ; H-Oh-Cah
525   524   886   1     110.00   125.52   ; H-Oh-Cah
525   524   931   1     110.00   125.52   ; H-Oh-Cah
881   524   886   1     97.93    KANGLE ; Cah-Oh-Cah
881   524   931   1     98.24    KANGLE ; Cah-Oh-Cah
886   524   931   1     98.24    KANGLE ; Cah-Oh-Cah
119   526   164   1     98.51    KANGLE ; Oh-Cah-Oh
119   526   169   1     98.49    KANGLE ; Oh-Cah-Oh
119   526   477   1     81.82    KANGLE ; Oh-Cah-Oh
119   526   482   1     81.82    KANGLE ; Oh-Cah-Oh
119   526   527   1     179.79   KANGLE ; Oh-Cah-Oh
164   526   169   1     98.36    KANGLE ; Oh-Cah-Oh
164   526   477   1     81.81    KANGLE ; Oh-Cah-Oh
164   526   482   1     179.66   KANGLE ; Oh-Cah-Oh
164   526   527   1     81.62    KANGLE ; Oh-Cah-Oh
169   526   477   1     179.62   KANGLE ; Oh-Cah-Oh
169   526   482   1     81.65    KANGLE ; Oh-Cah-Oh
169   526   527   1     81.65    KANGLE ; Oh-Cah-Oh
477   526   482   1     98.17    KANGLE ; Oh-Cah-Oh
477   526   527   1     98.04    KANGLE ; Oh-Cah-Oh
482   526   527   1     98.04    KANGLE ; Oh-Cah-Oh
526   527   528   1     110.00   125.52   ; Cah-Oh-H
526   527   571   1     98.24    KANGLE ; Cah-Oh-Cah
526   527   576   1     98.22    KANGLE ; Cah-Oh-Cah
528   527   571   1     110.00   125.52   ; H-Oh-Cah
528   527   576   1     110.00   125.52   ; H-Oh-Cah
571   527   576   1     98.09    KANGLE ; Cah-Oh-Cah
530   529   886   1     110.00   125.52   ; H-Oh-Cah
530   529   891   1     110.00   125.52   ; H-Oh-Cah
530   529   936   1     110.00   125.52   ; H-Oh-Cah
886   529   891   1     98.09    KANGLE ; Cah-Oh-Cah
886   529   936   1     98.22    KANGLE ; Cah-Oh-Cah
891   529   936   1     98.24    KANGLE ; Cah-Oh-Cah
124   531   169   1     98.51    KANGLE ; Oh-Cah-Oh
124   531   174   1     98.51    KANGLE ; Oh-Cah-Oh
124   531   482   1     81.85    KANGLE ; Oh-Cah-Oh
124   531   487   1     81.82    KANGLE ; Oh-Cah-Oh
124   531   532   1     179.79   KANGLE ; Oh-Cah-Oh
169   531   174   1     98.20    KANGLE ; Oh-Cah-Oh
169   531   482   1     81.65    KANGLE ; Oh-Cah-Oh
169   531   487   1     179.66   KANGLE ; Oh-Cah-Oh
169   531   532   1     81.62    KANGLE ; Oh-Cah-Oh
174   531   482   1     179.63   KANGLE ; Oh-Cah-Oh
174   531   487   1     81.81    KANGLE ; Oh-Cah-Oh
174   531   532   1     81.62    KANGLE ; Oh-Cah-Oh
482   531   487   1     98.33    KANGLE ; Oh-Cah-Oh
482   531   532   1     98.02    KANGLE ; Oh-Cah-Oh
487   531   532   1     98.04    KANGLE ; Oh-Cah-Oh
531   532   533   1     110.00   125.52   ; Cah-Oh-H
531   532   576   1     98.24    KANGLE ; Cah-Oh-Cah
531   532   581   1     98.24    KANGLE ; Cah-Oh-Cah
533   532   576   1     110.00   125.52   ; H-Oh-Cah
533   532   581   1     110.00   125.52   ; H-Oh-Cah
576   532   581   1     97.93    KANGLE ; Cah-Oh-Cah
535   534   891   1     110.00   125.52   ; H-Oh-Cah
535   534   896   1     110.00   125.52   ; H-Oh-Cah
535   534   941   1     110.00   125.52   ; H-Oh-Cah
891   534   896   1     97.93    KANGLE ; Cah-Oh-Cah
891   534   941   1     98.24    KANGLE ; Cah-Oh-Cah
896   534   941   1     98.24    KANGLE ; Cah-Oh-Cah
129   536   174   1     98.51    KANGLE ; Oh-Cah-Oh
129   536   179   1     98.49    KANGLE ; Oh-Cah-Oh
129   536   487   1     81.82    KANGLE ; Oh-Cah-Oh
129   536   492   1     81.82    KANGLE ; Oh-Cah-Oh
129   536   537   1     179.79   KANGLE ; Oh-Cah-Oh
174   536   179   1     98.36    KANGLE ; Oh-Cah-Oh
174   536   487   1     81.81    KANGLE ; Oh-Cah-Oh
174   536   492   1     179.66   KANGLE ; Oh-Cah-Oh
174   536   537   1     81.62    KANGLE ; Oh-Cah-Oh
179   536   487   1     179.62   KANGLE ; Oh-Cah-Oh
179   536   492   1     81.65    KANGLE ; Oh-Cah-Oh
179   536   537   1     81.65    KANGLE ; Oh-Cah-Oh
487   536   492   1     98.17    KANGLE ; Oh-Cah-Oh
487   536   537   1     98.04    KANGLE ; Oh-Cah-Oh
492   536   537   1     98.04    KANGLE ; Oh-Cah-Oh
536   537   538   1     110.00   125.52   ; Cah-Oh-H
536   537   541   1     98.23    KANGLE ; Cah-Oh-Cah
536   537   581   1     98.24    KANGLE ; Cah-Oh-Cah
538   537   541   1     110.00   125.52   ; H-Oh-Cah
538   537   581   1     110.00   125.52   ; H-Oh-Cah
541   537   581   1     98.01    KANGLE ; Cah-Oh-Cah
540   539   856   1     110.00   125.52   ; H-Oh-Cah
540   539   896   1     110.00   125.52   ; H-Oh-Cah
540   539   901   1     110.00   125.52   ; H-Oh-Cah
856   539   896   1     98.01    KANGLE ; Cah-Oh-Cah
856   539   901   1     98.35    KANGLE ; Cah-Oh-Cah
896   539   901   1     98.12    KANGLE ; Cah-Oh-Cah
179   541   184   1     98.22    KANGLE ; Oh-Cah-Oh
179   541   224   1     98.40    KANGLE ; Oh-Cah-Oh
179   541   497   1     81.53    KANGLE ; Oh-Cah-Oh
179   541   537   1     81.73    KANGLE ; Oh-Cah-Oh
179   541   542   1     179.76   KANGLE ; Oh-Cah-Oh
184   541   224   1     98.53    KANGLE ; Oh-Cah-Oh
184   541   497   1     81.81    KANGLE ; Oh-Cah-Oh
184   541   537   1     179.82   KANGLE ; Oh-Cah-Oh
184   541   542   1     81.82    KANGLE ; Oh-Cah-Oh
224   541   497   1     179.66   KANGLE ; Oh-Cah-Oh
224   541   537   1     81.65    KANGLE ; Oh-Cah-Oh
224   541   542   1     81.83    KANGLE ; Oh-Cah-Oh
497   541   537   1     98.01    KANGLE ; Oh-Cah-Oh
497   541   542   1     98.24    KANGLE ; Oh-Cah-Oh
537   541   542   1     98.23    KANGLE ; Oh-Cah-Oh
541   542   543   1     110.00   125.52   ; Cah-Oh-H
541   542   586   1     98.04    KANGLE ; Cah-Oh-Cah
541   542   591   1     98.04    KANGLE ; Cah-Oh-Cah
543   542   586   1     110.00   125.52   ; H-Oh-Cah
543   542   591   1     110.00   125.52   ; H-Oh-Cah
586   542   591   1     98.17    KANGLE ; Cah-Oh-Cah
545   544   901   1     110.00   125.52   ; H-Oh-Cah
545   544   906   1     110.00   125.52   ; H-Oh-Cah
545   544   951   1     110.00   125.52   ; H-Oh-Cah
901   544   906   1     98.33    KANGLE ; Cah-Oh-Cah
901   544   951   1     98.04    KANGLE ; Cah-Oh-Cah
906   544   951   1     98.02    KANGLE ; Cah-Oh-Cah
139   546   184   1     98.29    KANGLE ; Oh-Cah-Oh
139   546   189   1     98.32    KANGLE ; Oh-Cah-Oh
139   546   497   1     81.65    KANGLE ; Oh-Cah-Oh
139   546   502   1     81.62    KANGLE ; Oh-Cah-Oh
139   546   547   1     179.68   KANGLE ; Oh-Cah-Oh
184   546   189   1     98.60    KANGLE ; Oh-Cah-Oh
184   546   497   1     81.50    KANGLE ; Oh-Cah-Oh
184   546   502   1     179.58   KANGLE ; Oh-Cah-Oh
184   546   547   1     81.66    KANGLE ; Oh-Cah-Oh
189   546   497   1     179.90   KANGLE ; Oh-Cah-Oh
189   546   502   1     81.81    KANGLE ; Oh-Cah-Oh
189   546   547   1     82.00    KANGLE ; Oh-Cah-Oh
497   546   502   1     98.09    KANGLE ; Oh-Cah-Oh
497   546   547   1     98.03    KANGLE ; Oh-Cah-Oh
502   546   547   1     98.43    KANGLE ; Oh-Cah-Oh
546   547   548   1     110.00   125.52   ; Cah-Oh-H
546   547   591   1     98.23    KANGLE ; Cah-Oh-Cah
546   547   596   1     97.83    KANGLE ; Cah-Oh-Cah
548   547   591   1     110.00   125.52   ; H-Oh-Cah
548   547   596   1     110.00   125.52   ; H-Oh-Cah
591   547   596   1     98.33    KANGLE ; Cah-Oh-Cah
550   549   906   1     110.00   125.52   ; H-Oh-Cah
550   549   911   1     110.00   125.52   ; H-Oh-Cah
550   549   956   1     110.00   125.52   ; H-Oh-Cah
906   549   911   1     98.17    KANGLE ; Cah-Oh-Cah
906   549   956   1     98.04    KANGLE ; Cah-Oh-Cah
911   549   956   1     98.04    KANGLE ; Cah-Oh-Cah
144   551   189   1     98.32    KANGLE ; Oh-Cah-Oh
144   551   194   1     98.32    KANGLE ; Oh-Cah-Oh
144   551   502   1     81.62    KANGLE ; Oh-Cah-Oh
144   551   507   1     81.62    KANGLE ; Oh-Cah-Oh
144   551   552   1     179.79   KANGLE ; Oh-Cah-Oh
189   551   194   1     98.45    KANGLE ; Oh-Cah-Oh
189   551   502   1     81.81    KANGLE ; Oh-Cah-Oh
189   551   507   1     179.74   KANGLE ; Oh-Cah-Oh
189   551   552   1     81.82    KANGLE ; Oh-Cah-Oh
194   551   502   1     179.74   KANGLE ; Oh-Cah-Oh
194   551   507   1     81.81    KANGLE ; Oh-Cah-Oh
194   551   552   1     81.82    KANGLE ; Oh-Cah-Oh
502   551   507   1     97.93    KANGLE ; Oh-Cah-Oh
502   551   552   1     98.24    KANGLE ; Oh-Cah-Oh
507   551   552   1     98.24    KANGLE ; Oh-Cah-Oh
551   552   553   1     110.00   125.52   ; Cah-Oh-H
551   552   596   1     98.04    KANGLE ; Cah-Oh-Cah
551   552   601   1     98.04    KANGLE ; Cah-Oh-Cah
553   552   596   1     110.00   125.52   ; H-Oh-Cah
553   552   601   1     110.00   125.52   ; H-Oh-Cah
596   552   601   1     98.17    KANGLE ; Cah-Oh-Cah
555   554   911   1     110.00   125.52   ; H-Oh-Cah
555   554   916   1     110.00   125.52   ; H-Oh-Cah
555   554   961   1     110.00   125.52   ; H-Oh-Cah
911   554   916   1     98.33    KANGLE ; Cah-Oh-Cah
911   554   961   1     98.04    KANGLE ; Cah-Oh-Cah
916   554   961   1     98.02    KANGLE ; Cah-Oh-Cah
149   556   194   1     98.29    KANGLE ; Oh-Cah-Oh
149   556   199   1     98.32    KANGLE ; Oh-Cah-Oh
149   556   507   1     81.65    KANGLE ; Oh-Cah-Oh
149   556   512   1     81.62    KANGLE ; Oh-Cah-Oh
149   556   557   1     179.68   KANGLE ; Oh-Cah-Oh
194   556   199   1     98.60    KANGLE ; Oh-Cah-Oh
194   556   507   1     81.50    KANGLE ; Oh-Cah-Oh
194   556   512   1     179.58   KANGLE ; Oh-Cah-Oh
194   556   557   1     81.66    KANGLE ; Oh-Cah-Oh
199   556   507   1     179.90   KANGLE ; Oh-Cah-Oh
199   556   512   1     81.81    KANGLE ; Oh-Cah-Oh
199   556   557   1     82.00    KANGLE ; Oh-Cah-Oh
507   556   512   1     98.09    KANGLE ; Oh-Cah-Oh
507   556   557   1     98.03    KANGLE ; Oh-Cah-Oh
512   556   557   1     98.43    KANGLE ; Oh-Cah-Oh
556   557   558   1     110.00   125.52   ; Cah-Oh-H
556   557   601   1     98.23    KANGLE ; Cah-Oh-Cah
556   557   606   1     97.83    KANGLE ; Cah-Oh-Cah
558   557   601   1     110.00   125.52   ; H-Oh-Cah
558   557   606   1     110.00   125.52   ; H-Oh-Cah
601   557   606   1     98.33    KANGLE ; Cah-Oh-Cah
560   559   916   1     110.00   125.52   ; H-Oh-Cah
560   559   921   1     110.00   125.52   ; H-Oh-Cah
560   559   966   1     110.00   125.52   ; H-Oh-Cah
916   559   921   1     98.17    KANGLE ; Cah-Oh-Cah
916   559   966   1     98.04    KANGLE ; Cah-Oh-Cah
921   559   966   1     98.04    KANGLE ; Cah-Oh-Cah
154   561   199   1     98.32    KANGLE ; Oh-Cah-Oh
154   561   204   1     98.32    KANGLE ; Oh-Cah-Oh
154   561   512   1     81.62    KANGLE ; Oh-Cah-Oh
154   561   517   1     81.62    KANGLE ; Oh-Cah-Oh
154   561   562   1     179.79   KANGLE ; Oh-Cah-Oh
199   561   204   1     98.45    KANGLE ; Oh-Cah-Oh
199   561   512   1     81.81    KANGLE ; Oh-Cah-Oh
199   561   517   1     179.74   KANGLE ; Oh-Cah-Oh
199   561   562   1     81.82    KANGLE ; Oh-Cah-Oh
204   561   512   1     179.74   KANGLE ; Oh-Cah-Oh
204   561   517   1     81.81    KANGLE ; Oh-Cah-Oh
204   561   562   1     81.82    KANGLE ; Oh-Cah-Oh
512   561   517   1     97.93    KANGLE ; Oh-Cah-Oh
512   561   562   1     98.24    KANGLE ; Oh-Cah-Oh
517   561   562   1     98.24    KANGLE ; Oh-Cah-Oh
561   562   563   1     110.00   125.52   ; Cah-Oh-H
561   562   606   1     98.04    KANGLE ; Cah-Oh-Cah
561   562   611   1     98.04    KANGLE ; Cah-Oh-Cah
563   562   606   1     110.00   125.52   ; H-Oh-Cah
563   562   611   1     110.00   125.52   ; H-Oh-Cah
606   562   611   1     98.17    KANGLE ; Cah-Oh-Cah
565   564   921   1     110.00   125.52   ; H-Oh-Cah
565   564   926   1     110.00   125.52   ; H-Oh-Cah
565   564   971   1     110.00   125.52   ; H-Oh-Cah
921   564   926   1     98.33    KANGLE ; Cah-Oh-Cah
921   564   971   1     98.04    KANGLE ; Cah-Oh-Cah
926   564   971   1     98.02    KANGLE ; Cah-Oh-Cah
159   566   204   1     98.29    KANGLE ; Oh-Cah-Oh
159   566   209   1     98.32    KANGLE ; Oh-Cah-Oh
159   566   517   1     81.65    KANGLE ; Oh-Cah-Oh
159   566   522   1     81.62    KANGLE ; Oh-Cah-Oh
159   566   567   1     179.68   KANGLE ; Oh-Cah-Oh
204   566   209   1     98.60    KANGLE ; Oh-Cah-Oh
204   566   517   1     81.50    KANGLE ; Oh-Cah-Oh
204   566   522   1     179.58   KANGLE ; Oh-Cah-Oh
204   566   567   1     81.66    KANGLE ; Oh-Cah-Oh
209   566   517   1     179.90   KANGLE ; Oh-Cah-Oh
209   566   522   1     81.81    KANGLE ; Oh-Cah-Oh
209   566   567   1     82.00    KANGLE ; Oh-Cah-Oh
517   566   522   1     98.09    KANGLE ; Oh-Cah-Oh
517   566   567   1     98.03    KANGLE ; Oh-Cah-Oh
522   566   567   1     98.43    KANGLE ; Oh-Cah-Oh
566   567   568   1     110.00   125.52   ; Cah-Oh-H
566   567   611   1     98.23    KANGLE ; Cah-Oh-Cah
566   567   616   1     97.83    KANGLE ; Cah-Oh-Cah
568   567   611   1     110.00   125.52   ; H-Oh-Cah
568   567   616   1     110.00   125.52   ; H-Oh-Cah
611   567   616   1     98.33    KANGLE ; Cah-Oh-Cah
570   569   926   1     110.00   125.52   ; H-Oh-Cah
570   569   931   1     110.00   125.52   ; H-Oh-Cah
570   569   976   1     110.00   125.52   ; H-Oh-Cah
926   569   931   1     98.17    KANGLE ; Cah-Oh-Cah
926   569   976   1     98.04    KANGLE ; Cah-Oh-Cah
931   569   976   1     98.04    KANGLE ; Cah-Oh-Cah
164   571   209   1     98.32    KANGLE ; Oh-Cah-Oh
164   571   214   1     98.32    KANGLE ; Oh-Cah-Oh
164   571   522   1     81.62    KANGLE ; Oh-Cah-Oh
164   571   527   1     81.62    KANGLE ; Oh-Cah-Oh
164   571   572   1     179.79   KANGLE ; Oh-Cah-Oh
209   571   214   1     98.45    KANGLE ; Oh-Cah-Oh
209   571   522   1     81.81    KANGLE ; Oh-Cah-Oh
209   571   527   1     179.74   KANGLE ; Oh-Cah-Oh
209   571   572   1     81.82    KANGLE ; Oh-Cah-Oh
214   571   522   1     179.74   KANGLE ; Oh-Cah-Oh
214   571   527   1     81.81    KANGLE ; Oh-Cah-Oh
214   571   572   1     81.82    KANGLE ; Oh-Cah-Oh
522   571   527   1     97.93    KANGLE ; Oh-Cah-Oh
522   571   572   1     98.24    KANGLE ; Oh-Cah-Oh
527   571   572   1     98.24    KANGLE ; Oh-Cah-Oh
571   572   573   1     110.00   125.52   ; Cah-Oh-H
571   572   616   1     98.04    KANGLE ; Cah-Oh-Cah
571   572   621   1     98.04    KANGLE ; Cah-Oh-Cah
573   572   616   1     110.00   125.52   ; H-Oh-Cah
573   572   621   1     110.00   125.52   ; H-Oh-Cah
616   572   621   1     98.17    KANGLE ; Cah-Oh-Cah
575   574   931   1     110.00   125.52   ; H-Oh-Cah
575   574   936   1     110.00   125.52   ; H-Oh-Cah
575   574   981   1     110.00   125.52   ; H-Oh-Cah
931   574   936   1     98.33    KANGLE ; Cah-Oh-Cah
931   574   981   1     98.04    KANGLE ; Cah-Oh-Cah
936   574   981   1     98.02    KANGLE ; Cah-Oh-Cah
169   576   214   1     98.29    KANGLE ; Oh-Cah-Oh
169   576   219   1     98.32    KANGLE ; Oh-Cah-Oh
169   576   527   1     81.65    KANGLE ; Oh-Cah-Oh
169   576   532   1     81.62    KANGLE ; Oh-Cah-Oh
169   576   577   1     179.68   KANGLE ; Oh-Cah-Oh
214   576   219   1     98.60    KANGLE ; Oh-Cah-Oh
214   576   527   1     81.50    KANGLE ; Oh-Cah-Oh
214   576   532   1     179.58   KANGLE ; Oh-Cah-Oh
214   576   577   1     81.66    KANGLE ; Oh-Cah-Oh
219   576   527   1     179.90   KANGLE ; Oh-Cah-Oh
219   576   532   1     81.81    KANGLE ; Oh-Cah-Oh
219   576   577   1     82.00    KANGLE ; Oh-Cah-Oh
527   576   532   1     98.09    KANGLE ; Oh-Cah-Oh
527   576   577   1     98.03    KANGLE ; Oh-Cah-Oh
532   576   577   1     98.43    KANGLE ; Oh-Cah-Oh
576   577   578   1     110.00   125.52   ; Cah-Oh-H
576   577   621   1     98.23    KANGLE ; Cah-Oh-Cah
576   577   626   1     97.83    KANGLE ; Cah-Oh-Cah
578   577   621   1     110.00   125.52   ; H-Oh-Cah
578   577   626   1     110.00   125.52   ; H-Oh-Cah
621   577   626   1     98.33    KANGLE ; Cah-Oh-Cah
580   579   936   1     110.00   125.52   ; H-Oh-Cah
580   579   941   1     110.00   125.52   ; H-Oh-Cah
580   579   986   1     110.00   125.52   ; H-Oh-Cah
936   579   941   1     98.17    KANGLE ; Cah-Oh-Cah
936   579   986   1     98.04    KANGLE ; Cah-Oh-Cah
941   579   986   1     98.04    KANGLE ; Cah-Oh-Cah
174   581   219   1     98.32    KANGLE ; Oh-Cah-Oh
174   581   224   1     98.32    KANGLE ; Oh-Cah-Oh
174   581   532   1     81.62    KANGLE ; Oh-Cah-Oh
174   581   537   1     81.62    KANGLE ; Oh-Cah-Oh
174   581   582   1     179.79   KANGLE ; Oh-Cah-Oh
219   581   224   1     98.45    KANGLE ; Oh-Cah-Oh
219   581   532   1     81.81    KANGLE ; Oh-Cah-Oh
219   581   537   1     179.74   KANGLE ; Oh-Cah-Oh
219   581   582   1     81.82    KANGLE ; Oh-Cah-Oh
224   581   532   1     179.74   KANGLE ; Oh-Cah-Oh
224   581   537   1     81.81    KANGLE ; Oh-Cah-Oh
224   581   582   1     81.82    KANGLE ; Oh-Cah-Oh
532   581   537   1     97.93    KANGLE ; Oh-Cah-Oh
532   581   582   1     98.24    KANGLE ; Oh-Cah-Oh
537   581   582   1     98.24    KANGLE ; Oh-Cah-Oh
581   582   583   1     110.00   125.52   ; Cah-Oh-H
581   582   586   1     98.03    KANGLE ; Cah-Oh-Cah
581   582   626   1     98.04    KANGLE ; Cah-Oh-Cah
583   582   586   1     110.00   125.52   ; H-Oh-Cah
583   582   626   1     110.00   125.52   ; H-Oh-Cah
586   582   626   1     98.25    KANGLE ; Cah-Oh-Cah
585   584   901   1     110.00   125.52   ; H-Oh-Cah
585   584   941   1     110.00   125.52   ; H-Oh-Cah
585   584   946   1     110.00   125.52   ; H-Oh-Cah
901   584   941   1     98.25    KANGLE ; Cah-Oh-Cah
901   584   946   1     97.94    KANGLE ; Cah-Oh-Cah
941   584   946   1     98.14    KANGLE ; Cah-Oh-Cah
224   586   229   1     98.61    KANGLE ; Oh-Cah-Oh
224   586   269   1     98.41    KANGLE ; Oh-Cah-Oh
224   586   542   1     81.91    KANGLE ; Oh-Cah-Oh
224   586   582   1     81.74    KANGLE ; Oh-Cah-Oh
224   586   587   1     179.76   KANGLE ; Oh-Cah-Oh
229   586   269   1     98.28    KANGLE ; Oh-Cah-Oh
229   586   542   1     81.81    KANGLE ; Oh-Cah-Oh
229   586   582   1     179.65   KANGLE ; Oh-Cah-Oh
229   586   587   1     81.62    KANGLE ; Oh-Cah-Oh
269   586   542   1     179.65   KANGLE ; Oh-Cah-Oh
269   586   582   1     81.65    KANGLE ; Oh-Cah-Oh
269   586   587   1     81.64    KANGLE ; Oh-Cah-Oh
542   586   582   1     98.25    KANGLE ; Oh-Cah-Oh
542   586   587   1     98.04    KANGLE ; Oh-Cah-Oh
582   586   587   1     98.03    KANGLE ; Oh-Cah-Oh
586   587   588   1     110.00   125.52   ; Cah-Oh-H
586   587   631   1     98.24    KANGLE ; Cah-Oh-Cah
586   587   636   1     98.24    KANGLE ; Cah-Oh-Cah
588   587   631   1     110.00   125.52   ; H-Oh-Cah
588   587   636   1     110.00   125.52   ; H-Oh-Cah
631   587   636   1     97.93    KANGLE ; Cah-Oh-Cah
590   589   946   1     110.00   125.52   ; H-Oh-Cah
590   589   951   1     110.00   125.52   ; H-Oh-Cah
590   589   996   1     110.00   125.52   ; H-Oh-Cah
946   589   951   1     97.93    KANGLE ; Cah-Oh-Cah
946   589   996   1     98.24    KANGLE ; Cah-Oh-Cah
951   589   996   1     98.24    KANGLE ; Cah-Oh-Cah
184   591   229   1     98.51    KANGLE ; Oh-Cah-Oh
184   591   234   1     98.49    KANGLE ; Oh-Cah-Oh
184   591   542   1     81.82    KANGLE ; Oh-Cah-Oh
184   591   547   1     81.82    KANGLE ; Oh-Cah-Oh
184   591   592   1     179.79   KANGLE ; Oh-Cah-Oh
229   591   234   1     98.36    KANGLE ; Oh-Cah-Oh
229   591   542   1     81.81    KANGLE ; Oh-Cah-Oh
229   591   547   1     179.66   KANGLE ; Oh-Cah-Oh
229   591   592   1     81.62    KANGLE ; Oh-Cah-Oh
234   591   542   1     179.62   KANGLE ; Oh-Cah-Oh
234   591   547   1     81.65    KANGLE ; Oh-Cah-Oh
234   591   592   1     81.65    KANGLE ; Oh-Cah-Oh
542   591   547   1     98.17    KANGLE ; Oh-Cah-Oh
542   591   592   1     98.04    KANGLE ; Oh-Cah-Oh
547   591   592   1     98.04    KANGLE ; Oh-Cah-Oh
591   592   593   1     110.00   125.52   ; Cah-Oh-H
591   592   636   1     98.24    KANGLE ; Cah-Oh-Cah
591   592   641   1     98.22    KANGLE ; Cah-Oh-Cah
593   592   636   1     110.00   125.52   ; H-Oh-Cah
593   592   641   1     110.00   125.52   ; H-Oh-Cah
636   592   641   1     98.09    KANGLE ; Cah-Oh-Cah
595   594   951   1     110.00   125.52   ; H-Oh-Cah
595   594   956   1     110.00   125.52   ; H-Oh-Cah
595   594   1001  1     110.00   125.52   ; H-Oh-Cah
951   594   956   1     98.09    KANGLE ; Cah-Oh-Cah
951   594   1001  1     98.22    KANGLE ; Cah-Oh-Cah
956   594   1001  1     98.24    KANGLE ; Cah-Oh-Cah
189   596   234   1     98.51    KANGLE ; Oh-Cah-Oh
189   596   239   1     98.51    KANGLE ; Oh-Cah-Oh
189   596   547   1     81.85    KANGLE ; Oh-Cah-Oh
189   596   552   1     81.82    KANGLE ; Oh-Cah-Oh
189   596   597   1     179.79   KANGLE ; Oh-Cah-Oh
234   596   239   1     98.20    KANGLE ; Oh-Cah-Oh
234   596   547   1     81.65    KANGLE ; Oh-Cah-Oh
234   596   552   1     179.66   KANGLE ; Oh-Cah-Oh
234   596   597   1     81.62    KANGLE ; Oh-Cah-Oh
239   596   547   1     179.63   KANGLE ; Oh-Cah-Oh
239   596   552   1     81.81    KANGLE ; Oh-Cah-Oh
239   596   597   1     81.62    KANGLE ; Oh-Cah-Oh
547   596   552   1     98.33    KANGLE ; Oh-Cah-Oh
547   596   597   1     98.02    KANGLE ; Oh-Cah-Oh
552   596   597   1     98.04    KANGLE ; Oh-Cah-Oh
596   597   598   1     110.00   125.52   ; Cah-Oh-H
596   597   641   1     98.24    KANGLE ; Cah-Oh-Cah
596   597   646   1     98.24    KANGLE ; Cah-Oh-Cah
598   597   641   1     110.00   125.52   ; H-Oh-Cah
598   597   646   1     110.00   125.52   ; H-Oh-Cah
641   597   646   1     97.93    KANGLE ; Cah-Oh-Cah
600   599   956   1     110.00   125.52   ; H-Oh-Cah
600   599   961   1     110.00   125.52   ; H-Oh-Cah
600   599   1006  1     110.00   125.52   ; H-Oh-Cah
956   599   961   1     97.93    KANGLE ; Cah-Oh-Cah
956   599   1006  1     98.24    KANGLE ; Cah-Oh-Cah
961   599   1006  1     98.24    KANGLE ; Cah-Oh-Cah
194   601   239   1     98.51    KANGLE ; Oh-Cah-Oh
194   601   244   1     98.49    KANGLE ; Oh-Cah-Oh
194   601   552   1     81.82    KANGLE ; Oh-Cah-Oh
194   601   557   1     81.82    KANGLE ; Oh-Cah-Oh
194   601   602   1     179.79   KANGLE ; Oh-Cah-Oh
239   601   244   1     98.36    KANGLE ; Oh-Cah-Oh
239   601   552   1     81.81    KANGLE ; Oh-Cah-Oh
239   601   557   1     179.66   KANGLE ; Oh-Cah-Oh
239   601   602   1     81.62    KANGLE ; Oh-Cah-Oh
244   601   552   1     179.62   KANGLE ; Oh-Cah-Oh
244   601   557   1     81.65    KANGLE ; Oh-Cah-Oh
244   601   602   1     81.65    KANGLE ; Oh-Cah-Oh
552   601   557   1     98.17    KANGLE ; Oh-Cah-Oh
552   601   602   1     98.04    KANGLE ; Oh-Cah-Oh
557   601   602   1     98.04    KANGLE ; Oh-Cah-Oh
601   602   603   1     110.00   125.52   ; Cah-Oh-H
601   602   646   1     98.24    KANGLE ; Cah-Oh-Cah
601   602   651   1     98.22    KANGLE ; Cah-Oh-Cah
603   602   646   1     110.00   125.52   ; H-Oh-Cah
603   602   651   1     110.00   125.52   ; H-Oh-Cah
646   602   651   1     98.09    KANGLE ; Cah-Oh-Cah
605   604   961   1     110.00   125.52   ; H-Oh-Cah
605   604   966   1     110.00   125.52   ; H-Oh-Cah
605   604   1011  1     110.00   125.52   ; H-Oh-Cah
961   604   966   1     98.09    KANGLE ; Cah-Oh-Cah
961   604   1011  1     98.22    KANGLE ; Cah-Oh-Cah
966   604   1011  1     98.24    KANGLE ; Cah-Oh-Cah
199   606   244   1     98.51    KANGLE ; Oh-Cah-Oh
199   606   249   1     98.51    KANGLE ; Oh-Cah-Oh
199   606   557   1     81.85    KANGLE ; Oh-Cah-Oh
199   606   562   1     81.82    KANGLE ; Oh-Cah-Oh
199   606   607   1     179.79   KANGLE ; Oh-Cah-Oh
244   606   249   1     98.20    KANGLE ; Oh-Cah-Oh
244   606   557   1     81.65    KANGLE ; Oh-Cah-Oh
244   606   562   1     179.66   KANGLE ; Oh-Cah-Oh
244   606   607   1     81.62    KANGLE ; Oh-Cah-Oh
249   606   557   1     179.63   KANGLE ; Oh-Cah-Oh
249   606   562   1     81.81    KANGLE ; Oh-Cah-Oh
249   606   607   1     81.62    KANGLE ; Oh-Cah-Oh
557   606   562   1     98.33    KANGLE ; Oh-Cah-Oh
557   606   607   1     98.02    KANGLE ; Oh-Cah-Oh
562   606   607   1     98.04    KANGLE ; Oh-Cah-Oh
606   607   608   1     110.00   125.52   ; Cah-Oh-H
606   607   651   1     98.24    KANGLE ; Cah-Oh-Cah
606   607   656   1     98.24    KANGLE ; Cah-Oh-Cah
608   607   651   1     110.00   125.52   ; H-Oh-Cah
608   607   656   1     110.00   125.52   ; H-Oh-Cah
651   607   656   1     97.93    KANGLE ; Cah-Oh-Cah
610   609   966   1     110.00   125.52   ; H-Oh-Cah
610   609   971   1     110.00   125.52   ; H-Oh-Cah
610   609   1016  1     110.00   125.52   ; H-Oh-Cah
966   609   971   1     97.93    KANGLE ; Cah-Oh-Cah
966   609   1016  1     98.24    KANGLE ; Cah-Oh-Cah
971   609   1016  1     98.24    KANGLE ; Cah-Oh-Cah
204   611   249   1     98.51    KANGLE ; Oh-Cah-Oh
204   611   254   1     98.49    KANGLE ; Oh-Cah-Oh
204   611   562   1     81.82    KANGLE ; Oh-Cah-Oh
204   611   567   1     81.82    KANGLE ; Oh-Cah-Oh
204   611   612   1     179.79   KANGLE ; Oh-Cah-Oh
249   611   254   1     98.36    KANGLE ; Oh-Cah-Oh
249   611   562   1     81.81    KANGLE ; Oh-Cah-Oh
249   611   567   1     179.66   KANGLE ; Oh-Cah-Oh
249   611   612   1     81.62    KANGLE ; Oh-Cah-Oh
254   611   562   1     179.62   KANGLE ; Oh-Cah-Oh
254   611   567   1     81.65    KANGLE ; Oh-Cah-Oh
254   611   612   1     81.65    KANGLE ; Oh-Cah-Oh
562   611   567   1     98.17    KANGLE ; Oh-Cah-Oh
562   611   612   1     98.04    KANGLE ; Oh-Cah-Oh
567   611   612   1     98.04    KANGLE ; Oh-Cah-Oh
611   612   613   1     110.00   125.52   ; Cah-Oh-H
611   612   656   1     98.24    KANGLE ; Cah-Oh-Cah
611   612   661   1     98.22    KANGLE ; Cah-Oh-Cah
613   612   656   1     110.00   125.52   ; H-Oh-Cah
613   612   661   1     110.00   125.52   ; H-Oh-Cah
656   612   661   1     98.09    KANGLE ; Cah-Oh-Cah
615   614   971   1     110.00   125.52   ; H-Oh-Cah
615   614   976   1     110.00   125.52   ; H-Oh-Cah
615   614   1021  1     110.00   125.52   ; H-Oh-Cah
971   614   976   1     98.09    KANGLE ; Cah-Oh-Cah
971   614   1021  1     98.22    KANGLE ; Cah-Oh-Cah
976   614   1021  1     98.24    KANGLE ; Cah-Oh-Cah
209   616   254   1     98.51    KANGLE ; Oh-Cah-Oh
209   616   259   1     98.51    KANGLE ; Oh-Cah-Oh
209   616   567   1     81.85    KANGLE ; Oh-Cah-Oh
209   616   572   1     81.82    KANGLE ; Oh-Cah-Oh
209   616   617   1     179.79   KANGLE ; Oh-Cah-Oh
254   616   259   1     98.20    KANGLE ; Oh-Cah-Oh
254   616   567   1     81.65    KANGLE ; Oh-Cah-Oh
254   616   572   1     179.66   KANGLE ; Oh-Cah-Oh
254   616   617   1     81.62    KANGLE ; Oh-Cah-Oh
259   616   567   1     179.63   KANGLE ; Oh-Cah-Oh
259   616   572   1     81.81    KANGLE ; Oh-Cah-Oh
259   616   617   1     81.62    KANGLE ; Oh-Cah-Oh
567   616   572   1     98.33    KANGLE ; Oh-Cah-Oh
567   616   617   1     98.02    KANGLE ; Oh-Cah-Oh
572   616   617   1     98.04    KANGLE ; Oh-Cah-Oh
616   617   618   1     110.00   125.52   ; Cah-Oh-H
616   617   661   1     98.24    KANGLE ; Cah-Oh-Cah
616   617   666   1     98.24    KANGLE ; Cah-Oh-Cah
618   617   661   1     110.00   125.52   ; H-Oh-Cah
618   617   666   1     110.00   125.52   ; H-Oh-Cah
661   617   666   1     97.93    KANGLE ; Cah-Oh-Cah
620   619   976   1     110.00   125.52   ; H-Oh-Cah
620   619   981   1     110.00   125.52   ; H-Oh-Cah
620   619   1026  1     110.00   125.52   ; H-Oh-Cah
976   619   981   1     97.93    KANGLE ; Cah-Oh-Cah
976   619   1026  1     98.24    KANGLE ; Cah-Oh-Cah
981   619   1026  1     98.24    KANGLE ; Cah-Oh-Cah
214   621   259   1     98.51    KANGLE ; Oh-Cah-Oh
214   621   264   1     98.49    KANGLE ; Oh-Cah-Oh
214   621   572   1     81.82    KANGLE ; Oh-Cah-Oh
214   621   577   1     81.82    KANGLE ; Oh-Cah-Oh
214   621   622   1     179.79   KANGLE ; Oh-Cah-Oh
259   621   264   1     98.36    KANGLE ; Oh-Cah-Oh
259   621   572   1     81.81    KANGLE ; Oh-Cah-Oh
259   621   577   1     179.66   KANGLE ; Oh-Cah-Oh
259   621   622   1     81.62    KANGLE ; Oh-Cah-Oh
264   621   572   1     179.62   KANGLE ; Oh-Cah-Oh
264   621   577   1     81.65    KANGLE ; Oh-Cah-Oh
264   621   622   1     81.65    KANGLE ; Oh-Cah-Oh
572   621   577   1     98.17    KANGLE ; Oh-Cah-Oh
572   621   622   1     98.04    KANGLE ; Oh-Cah-Oh
577   621   622   1     98.04    KANGLE ; Oh-Cah-Oh
621   622   623   1     110.00   125.52   ; Cah-Oh-H
621   622   666   1     98.24    KANGLE ; Cah-Oh-Cah
621   622   671   1     98.22    KANGLE ; Cah-Oh-Cah
623   622   666   1     110.00   125.52   ; H-Oh-Cah
623   622   671   1     110.00   125.52   ; H-Oh-Cah
666   622   671   1     98.09    KANGLE ; Cah-Oh-Cah
625   624   981   1     110.00   125.52   ; H-Oh-Cah
625   624   986   1     110.00   125.52   ; H-Oh-Cah
625   624   1031  1     110.00   125.52   ; H-Oh-Cah
981   624   986   1     98.09    KANGLE ; Cah-Oh-Cah
981   624   1031  1     98.22    KANGLE ; Cah-Oh-Cah
986   624   1031  1     98.24    KANGLE ; Cah-Oh-Cah
219   626   264   1     98.51    KANGLE ; Oh-Cah-Oh
219   626   269   1     98.51    KANGLE ; Oh-Cah-Oh
219   626   577   1     81.85    KANGLE ; Oh-Cah-Oh
219   626   582   1     81.82    KANGLE ; Oh-Cah-Oh
219   626   627   1     179.79   KANGLE ; Oh-Cah-Oh
264   626   269   1     98.20    KANGLE ; Oh-Cah-Oh
264   626   577   1     81.65    KANGLE ; Oh-Cah-Oh
264   626   582   1     179.66   KANGLE ; Oh-Cah-Oh
264   626   627   1     81.62    KANGLE ; Oh-Cah-Oh
269   626   577   1     179.63   KANGLE ; Oh-Cah-Oh
269   626   582   1     81.81    KANGLE ; Oh-Cah-Oh
269   626   627   1     81.62    KANGLE ; Oh-Cah-Oh
577   626   582   1     98.33    KANGLE ; Oh-Cah-Oh
577   626   627   1     98.02    KANGLE ; Oh-Cah-Oh
582   626   627   1     98.04    KANGLE ; Oh-Cah-Oh
626   627   628   1     110.00   125.52   ; Cah-Oh-H
626   627   631   1     98.23    KANGLE ; Cah-Oh-Cah
626   627   671   1     98.24    KANGLE ; Cah-Oh-Cah
628   627   631   1     110.00   125.52   ; H-Oh-Cah
628   627   671   1     110.00   125.52   ; H-Oh-Cah
631   627   671   1     98.01    KANGLE ; Cah-Oh-Cah
630   629   946   1     110.00   125.52   ; H-Oh-Cah
630   629   986   1     110.00   125.52   ; H-Oh-Cah
630   629   991   1     110.00   125.52   ; H-Oh-Cah
946   629   986   1     98.01    KANGLE ; Cah-Oh-Cah
946   629   991   1     98.14    KANGLE ; Cah-Oh-Cah
986   629   991   1     98.33    KANGLE ; Cah-Oh-Cah
269   631   274   1     98.41    KANGLE ; Oh-Cah-Oh
269   631   314   1     98.21    KANGLE ; Oh-Cah-Oh
269   631   587   1     81.71    KANGLE ; Oh-Cah-Oh
269   631   627   1     81.54    KANGLE ; Oh-Cah-Oh
269   631   632   1     179.58   KANGLE ; Oh-Cah-Oh
274   631   314   1     98.53    KANGLE ; Oh-Cah-Oh
274   631   587   1     81.81    KANGLE ; Oh-Cah-Oh
274   631   627   1     179.82   KANGLE ; Oh-Cah-Oh
274   631   632   1     82.00    KANGLE ; Oh-Cah-Oh
314   631   587   1     179.66   KANGLE ; Oh-Cah-Oh
314   631   627   1     81.65    KANGLE ; Oh-Cah-Oh
314   631   632   1     81.65    KANGLE ; Oh-Cah-Oh
587   631   627   1     98.01    KANGLE ; Oh-Cah-Oh
587   631   632   1     98.43    KANGLE ; Oh-Cah-Oh
627   631   632   1     98.04    KANGLE ; Oh-Cah-Oh
631   632   633   1     110.00   125.52   ; Cah-Oh-H
631   632   676   1     98.23    KANGLE ; Cah-Oh-Cah
631   632   681   1     97.83    KANGLE ; Cah-Oh-Cah
633   632   676   1     110.00   125.52   ; H-Oh-Cah
633   632   681   1     110.00   125.52   ; H-Oh-Cah
676   632   681   1     98.33    KANGLE ; Cah-Oh-Cah
635   634   991   1     110.00   125.52   ; H-Oh-Cah
635   634   996   1     110.00   125.52   ; H-Oh-Cah
635   634   1041  1     110.00   125.52   ; H-Oh-Cah
991   634   996   1     98.17    KANGLE ; Cah-Oh-Cah
991   634   1041  1     98.04    KANGLE ; Cah-Oh-Cah
996   634   1041  1     98.04    KANGLE ; Cah-Oh-Cah
229   636   274   1     98.32    KANGLE ; Oh-Cah-Oh
229   636   279   1     98.32    KANGLE ; Oh-Cah-Oh
229   636   587   1     81.62    KANGLE ; Oh-Cah-Oh
229   636   592   1     81.62    KANGLE ; Oh-Cah-Oh
229   636   637   1     179.79   KANGLE ; Oh-Cah-Oh
274   636   279   1     98.45    KANGLE ; Oh-Cah-Oh
274   636   587   1     81.81    KANGLE ; Oh-Cah-Oh
274   636   592   1     179.74   KANGLE ; Oh-Cah-Oh
274   636   637   1     81.82    KANGLE ; Oh-Cah-Oh
279   636   587   1     179.74   KANGLE ; Oh-Cah-Oh
279   636   592   1     81.81    KANGLE ; Oh-Cah-Oh
279   636   637   1     81.82    KANGLE ; Oh-Cah-Oh
587   636   592   1     97.93    KANGLE ; Oh-Cah-Oh
587   636   637   1     98.24    KANGLE ; Oh-Cah-Oh
592   636   637   1     98.24    KANGLE ; Oh-Cah-Oh
636   637   638   1     110.00   125.52   ; Cah-Oh-H
636   637   681   1     98.04    KANGLE ; Cah-Oh-Cah
636   637   686   1     98.04    KANGLE ; Cah-Oh-Cah
638   637   681   1     110.00   125.52   ; H-Oh-Cah
638   637   686   1     110.00   125.52   ; H-Oh-Cah
681   637   686   1     98.17    KANGLE ; Cah-Oh-Cah
640   639   996   1     110.00   125.52   ; H-Oh-Cah
640   639   1001  1     110.00   125.52   ; H-Oh-Cah
640   639   1046  1     110.00   125.52   ; H-Oh-Cah
996   639   1001  1     98.33    KANGLE ; Cah-Oh-Cah
996   639   1046  1     98.04    KANGLE ; Cah-Oh-Cah
1001  639   1046  1     98.02    KANGLE ; Cah-Oh-Cah
234   641   279   1     98.29    KANGLE ; Oh-Cah-Oh
234   641   284   1     98.32    KANGLE ; Oh-Cah-Oh
234   641   592   1     81.65    KANGLE ; Oh-Cah-Oh
234   641   597   1     81.62    KANGLE ; Oh-Cah-Oh
234   641   642   1     179.68   KANGLE ; Oh-Cah-Oh
279   641   284   1     98.60    KANGLE ; Oh-Cah-Oh
279   641   592   1     81.50    KANGLE ; Oh-Cah-Oh
279   641   597   1     179.58   KANGLE ; Oh-Cah-Oh
279   641   642   1     81.66    KANGLE ; Oh-Cah-Oh
284   641   592   1     179.90   KANGLE ; Oh-Cah-Oh
284   641   597   1     81.81    KANGLE ; Oh-Cah-Oh
284   641   642   1     82.00    KANGLE ; Oh-Cah-Oh
592   641   597   1     98.09    KANGLE ; Oh-Cah-Oh
592   641   642   1     98.03    KANGLE ; Oh-Cah-Oh
597   641   642   1     98.43    KANGLE ; Oh-Cah-Oh
641   642   643   1     110.00   125.52   ; Cah-Oh-H
641   642   686   1     98.23    KANGLE ; Cah-Oh-Cah
641   642   691   1     97.83    KANGLE ; Cah-Oh-Cah
643   642   686   1     110.00   125.52   ; H-Oh-Cah
643   642   691   1     110.00   125.52   ; H-Oh-Cah
686   642   691   1     98.33    KANGLE ; Cah-Oh-Cah
645   644   1001  1     110.00   125.52   ; H-Oh-Cah
645   644   1006  1     110.00   125.52   ; H-Oh-Cah
645   644   1051  1     110.00   125.52   ; H-Oh-Cah
1001  644   1006  1     98.17    KANGLE ; Cah-Oh-Cah
1001  644   1051  1     98.04    KANGLE ; Cah-Oh-Cah
1006  644   1051  1     98.04    KANGLE ; Cah-Oh-Cah
239   646   284   1     98.32    KANGLE ; Oh-Cah-Oh
239   646   289   1     98.32    KANGLE ; Oh-Cah-Oh
239   646   597   1     81.62    KANGLE ; Oh-Cah-Oh
239   646   602   1     81.62    KANGLE ; Oh-Cah-Oh
239   646   647   1     179.79   KANGLE ; Oh-Cah-Oh
284   646   289   1     98.45    KANGLE ; Oh-Cah-Oh
284   646   597   1     81.81    KANGLE ; Oh-Cah-Oh
284   646   602   1     179.74   KANGLE ; Oh-Cah-Oh
284   646   647   1     81.82    KANGLE ; Oh-Cah-Oh
289   646   597   1     179.74   KANGLE ; Oh-Cah-Oh
289   646   602   1     81.81    KANGLE ; Oh-Cah-Oh
289   646   647   1     81.82    KANGLE ; Oh-Cah-Oh
597   646   602   1     97.93    KANGLE ; Oh-Cah-Oh
597   646   647   1     98.24    KANGLE ; Oh-Cah-Oh
602   646   647   1     98.24    KANGLE ; Oh-Cah-Oh
646   647   648   1     110.00   125.52   ; Cah-Oh-H
646   647   691   1     98.04    KANGLE ; Cah-Oh-Cah
646   647   696   1     98.04    KANGLE ; Cah-Oh-Cah
648   647   691   1     110.00   125.52   ; H-Oh-Cah
648   647   696   1     110.00   125.52   ; H-Oh-Cah
691   647   696   1     98.17    KANGLE ; Cah-Oh-Cah
650   649   1006  1     110.00   125.52   ; H-Oh-Cah
650   649   1011  1     110.00   125.52   ; H-Oh-Cah
650   649   1056  1     110.00   125.52   ; H-Oh-Cah
1006  649   1011  1     98.33    KANGLE ; Cah-Oh-Cah
1006  649   1056  1     98.04    KANGLE ; Cah-Oh-Cah
1011  649   1056  1     98.02    KANGLE ; Cah-Oh-Cah
244   651   289   1     98.29    KANGLE ; Oh-Cah-Oh
244   651   294   1     98.32    KANGLE ; Oh-Cah-Oh
244   651   602   1     81.65    KANGLE ; Oh-Cah-Oh
244   651   607   1     81.62    KANGLE ; Oh-Cah-Oh
244   651   652   1     179.68   KANGLE ; Oh-Cah-Oh
289   651   294   1     98.60    KANGLE ; Oh-Cah-Oh
289   651   602   1     81.50    KANGLE ; Oh-Cah-Oh
289   651   607   1     179.58   KANGLE ; Oh-Cah-Oh
289   651   652   1     81.66    KANGLE ; Oh-Cah-Oh
294   651   602   1     179.90   KANGLE ; Oh-Cah-Oh
294   651   607   1     81.81    KANGLE ; Oh-Cah-Oh
294   651   652   1     82.00    KANGLE ; Oh-Cah-Oh
602   651   607   1     98.09    KANGLE ; Oh-Cah-Oh
602   651   652   1     98.03    KANGLE ; Oh-Cah-Oh
607   651   652   1     98.43    KANGLE ; Oh-Cah-Oh
651   652   653   1     110.00   125.52   ; Cah-Oh-H
651   652   696   1     98.23    KANGLE ; Cah-Oh-Cah
651   652   701   1     97.83    KANGLE ; Cah-Oh-Cah
653   652   696   1     110.00   125.52   ; H-Oh-Cah
653   652   701   1     110.00   125.52   ; H-Oh-Cah
696   652   701   1     98.33    KANGLE ; Cah-Oh-Cah
655   654   1011  1     110.00   125.52   ; H-Oh-Cah
655   654   1016  1     110.00   125.52   ; H-Oh-Cah
655   654   1061  1     110.00   125.52   ; H-Oh-Cah
1011  654   1016  1     98.17    KANGLE ; Cah-Oh-Cah
1011  654   1061  1     98.04    KANGLE ; Cah-Oh-Cah
1016  654   1061  1     98.04    KANGLE ; Cah-Oh-Cah
249   656   294   1     98.32    KANGLE ; Oh-Cah-Oh
249   656   299   1     98.32    KANGLE ; Oh-Cah-Oh
249   656   607   1     81.62    KANGLE ; Oh-Cah-Oh
249   656   612   1     81.62    KANGLE ; Oh-Cah-Oh
249   656   657   1     179.79   KANGLE ; Oh-Cah-Oh
294   656   299   1     98.45    KANGLE ; Oh-Cah-Oh
294   656   607   1     81.81    KANGLE ; Oh-Cah-Oh
294   656   612   1     179.74   KANGLE ; Oh-Cah-Oh
294   656   657   1     81.82    KANGLE ; Oh-Cah-Oh
299   656   607   1     179.74   KANGLE ; Oh-Cah-Oh
299   656   612   1     81.81    KANGLE ; Oh-Cah-Oh
299   656   657   1     81.82    KANGLE ; Oh-Cah-Oh
607   656   612   1     97.93    KANGLE ; Oh-Cah-Oh
607   656   657   1     98.24    KANGLE ; Oh-Cah-Oh
612   656   657   1     98.24    KANGLE ; Oh-Cah-Oh
656   657   658   1     110.00   125.52   ; Cah-Oh-H
656   657   701   1     98.04    KANGLE ; Cah-Oh-Cah
656   657   706   1     98.04    KANGLE ; Cah-Oh-Cah
658   657   701   1     110.00   125.52   ; H-Oh-Cah
658   657   706   1     110.00   125.52   ; H-Oh-Cah
701   657   706   1     98.17    KANGLE ; Cah-Oh-Cah
660   659   1016  1     110.00   125.52   ; H-Oh-Cah
660   659   1021  1     110.00   125.52   ; H-Oh-Cah
660   659   1066  1     110.00   125.52   ; H-Oh-Cah
1016  659   1021  1     98.33    KANGLE ; Cah-Oh-Cah
1016  659   1066  1     98.04    KANGLE ; Cah-Oh-Cah
1021  659   1066  1     98.02    KANGLE ; Cah-Oh-Cah
254   661   299   1     98.29    KANGLE ; Oh-Cah-Oh
254   661   304   1     98.32    KANGLE ; Oh-Cah-Oh
254   661   612   1     81.65    KANGLE ; Oh-Cah-Oh
254   661   617   1     81.62    KANGLE ; Oh-Cah-Oh
254   661   662   1     179.68   KANGLE ; Oh-Cah-Oh
299   661   304   1     98.60    KANGLE ; Oh-Cah-Oh
299   661   612   1     81.50    KANGLE ; Oh-Cah-Oh
299   661   617   1     179.58   KANGLE ; Oh-Cah-Oh
299   661   662   1     81.66    KANGLE ; Oh-Cah-Oh
304   661   612   1     179.90   KANGLE ; Oh-Cah-Oh
304   661   617   1     81.81    KANGLE ; Oh-Cah-Oh
304   661   662   1     82.00    KANGLE ; Oh-Cah-Oh
612   661   617   1     98.09    KANGLE ; Oh-Cah-Oh
612   661   662   1     98.03    KANGLE ; Oh-Cah-Oh
617   661   662   1     98.43    KANGLE ; Oh-Cah-Oh
661   662   663   1     110.00   125.52   ; Cah-Oh-H
661   662   706   1     98.23    KANGLE ; Cah-Oh-Cah
661   662   711   1     97.83    KANGLE ; Cah-Oh-Cah
663   662   706   1     110.00   125.52   ; H-Oh-Cah
663   662   711   1     110.00   125.52   ; H-Oh-Cah
706   662   711   1     98.33    KANGLE ; Cah-Oh-Cah
665   664   1021  1     110.00   125.52   ; H-Oh-Cah
665   664   1026  1     110.00   125.52   ; H-Oh-Cah
665   664   1071  1     110.00   125.52   ; H-Oh-Cah
1021  664   1026  1     98.17    KANGLE ; Cah-Oh-Cah
1021  664   1071  1     98.04    KANGLE ; Cah-Oh-Cah
1026  664   1071  1     98.04    KANGLE ; Cah-Oh-Cah
259   666   304   1     98.32    KANGLE ; Oh-Cah-Oh
259   666   309   1     98.32    KANGLE ; Oh-Cah-Oh
259   666   617   1     81.62    KANGLE ; Oh-Cah-Oh
259   666   622   1     81.62    KANGLE ; Oh-Cah-Oh
259   666   667   1     179.79   KANGLE ; Oh-Cah-Oh
304   666   309   1     98.45    KANGLE ; Oh-Cah-Oh
304   666   617   1     81.81    KANGLE ; Oh-Cah-Oh
304   666   622   1     179.74   KANGLE ; Oh-Cah-Oh
304   666   667   1     81.82    KANGLE ; Oh-Cah-Oh
309   666   617   1     179.74   KANGLE ; Oh-Cah-Oh
309   666   622   1     81.81    KANGLE ; Oh-Cah-Oh
309   666   667   1     81.82    KANGLE ; Oh-Cah-Oh
617   666   622   1     97.93    KANGLE ; Oh-Cah-Oh
617   666   667   1     98.24    KANGLE ; Oh-Cah-Oh
622   666   667   1     98.24    KANGLE ; Oh-Cah-Oh
666   667   668   1     110.00   125.52   ; Cah-Oh-H
666   667   711   1     98.04    KANGLE ; Cah-Oh-Cah
666   667   716   1     98.04    KANGLE ; Cah-Oh-Cah
668   667   711   1     110.00   125.52   ; H-Oh-Cah
668   667   716   1     110.00   125.52   ; H-Oh-Cah
711   667   716   1     98.17    KANGLE ; Cah-Oh-Cah
670   669   1026  1     110.00   125.52   ; H-Oh-Cah
670   669   1031  1     110.00   125.52   ; H-Oh-Cah
670   669   1076  1     110.00   125.52   ; H-Oh-Cah
1026  669   1031  1     98.33    KANGLE ; Cah-Oh-Cah
1026  669   1076  1     98.04    KANGLE ; Cah-Oh-Cah
1031  669   1076  1     98.02    KANGLE ; Cah-Oh-Cah
264   671   309   1     98.29    KANGLE ; Oh-Cah-Oh
264   671   314   1     98.32    KANGLE ; Oh-Cah-Oh
264   671   622   1     81.65    KANGLE ; Oh-Cah-Oh
264   671   627   1     81.62    KANGLE ; Oh-Cah-Oh
264   671   672   1     179.68   KANGLE ; Oh-Cah-Oh
309   671   314   1     98.60    KANGLE ; Oh-Cah-Oh
309   671   622   1     81.50    KANGLE ; Oh-Cah-Oh
309   671   627   1     179.58   KANGLE ; Oh-Cah-Oh
309   671   672   1     81.66    KANGLE ; Oh-Cah-Oh
314   671   622   1     179.90   KANGLE ; Oh-Cah-Oh
314   671   627   1     81.81    KANGLE ; Oh-Cah-Oh
314   671   672   1     82.00    KANGLE ; Oh-Cah-Oh
622   671   627   1     98.09    KANGLE ; Oh-Cah-Oh
622   671   672   1     98.03    KANGLE ; Oh-Cah-Oh
627   671   672   1     98.43    KANGLE ; Oh-Cah-Oh
671   672   673   1     110.00   125.52   ; Cah-Oh-H
671   672   676   1     97.85    KANGLE ; Cah-Oh-Cah
671   672   716   1     98.23    KANGLE ; Cah-Oh-Cah
673   672   676   1     110.00   125.52   ; H-Oh-Cah
673   672   716   1     110.00   125.52   ; H-Oh-Cah
676   672   716   1     98.25    KANGLE ; Cah-Oh-Cah
675   674   991   1     110.00   125.52   ; H-Oh-Cah
675   674   1031  1     110.00   125.52   ; H-Oh-Cah
675   674   1036  1     110.00   125.52   ; H-Oh-Cah
991   674   1031  1     98.25    KANGLE ; Cah-Oh-Cah
991   674   1036  1     98.12    KANGLE ; Cah-Oh-Cah
1031  674   1036  1     97.95    KANGLE ; Cah-Oh-Cah
314   676   319   1     98.39    KANGLE ; Oh-Cah-Oh
314   676   359   1     98.62    KANGLE ; Oh-Cah-Oh
314   676   632   1     81.73    KANGLE ; Oh-Cah-Oh
314   676   672   1     81.93    KANGLE ; Oh-Cah-Oh
314   676   677   1     179.76   KANGLE ; Oh-Cah-Oh
319   676   359   1     98.28    KANGLE ; Oh-Cah-Oh
319   676   632   1     81.65    KANGLE ; Oh-Cah-Oh
319   676   672   1     179.65   KANGLE ; Oh-Cah-Oh
319   676   677   1     81.65    KANGLE ; Oh-Cah-Oh
359   676   632   1     179.65   KANGLE ; Oh-Cah-Oh
359   676   672   1     81.81    KANGLE ; Oh-Cah-Oh
359   676   677   1     81.61    KANGLE ; Oh-Cah-Oh
632   676   672   1     98.25    KANGLE ; Oh-Cah-Oh
632   676   677   1     98.04    KANGLE ; Oh-Cah-Oh
672   676   677   1     98.03    KANGLE ; Oh-Cah-Oh
361   677   366   1     98.15    KANGLE ; Cah-Oh-Cah
361   677   676   1     98.19    KANGLE ; Cah-Oh-Cah
361   677   678   1     110.00   125.52   ; Cah-Oh-H
366   677   676   1     98.17    KANGLE ; Cah-Oh-Cah
366   677   678   1     110.00   125.52   ; Cah-Oh-H
676   677   678   1     110.00   125.52   ; Cah-Oh-H
680   679   726   1     110.00   125.52   ; H-Oh-Cah
680   679   1036  1     110.00   125.52   ; H-Oh-Cah
680   679   1041  1     110.00   125.52   ; H-Oh-Cah
726   679   1036  1     98.20    KANGLE ; Cah-Oh-Cah
726   679   1041  1     98.22    KANGLE ; Cah-Oh-Cah
1036  679   1041  1     98.09    KANGLE ; Cah-Oh-Cah
274   681   319   1     98.51    KANGLE ; Oh-Cah-Oh
274   681   324   1     98.51    KANGLE ; Oh-Cah-Oh
274   681   632   1     81.85    KANGLE ; Oh-Cah-Oh
274   681   637   1     81.82    KANGLE ; Oh-Cah-Oh
274   681   682   1     179.79   KANGLE ; Oh-Cah-Oh
319   681   324   1     98.20    KANGLE ; Oh-Cah-Oh
319   681   632   1     81.65    KANGLE ; Oh-Cah-Oh
319   681   637   1     179.66   KANGLE ; Oh-Cah-Oh
319   681   682   1     81.62    KANGLE ; Oh-Cah-Oh
324   681   632   1     179.63   KANGLE ; Oh-Cah-Oh
324   681   637   1     81.81    KANGLE ; Oh-Cah-Oh
324   681   682   1     81.62    KANGLE ; Oh-Cah-Oh
632   681   637   1     98.33    KANGLE ; Oh-Cah-Oh
632   681   682   1     98.02    KANGLE ; Oh-Cah-Oh
637   681   682   1     98.04    KANGLE ; Oh-Cah-Oh
366   682   371   1     97.99    KANGLE ; Cah-Oh-Cah
366   682   681   1     98.19    KANGLE ; Cah-Oh-Cah
366   682   683   1     110.00   125.52   ; Cah-Oh-H
371   682   681   1     98.19    KANGLE ; Cah-Oh-Cah
371   682   683   1     110.00   125.52   ; Cah-Oh-H
681   682   683   1     110.00   125.52   ; Cah-Oh-H
685   684   731   1     110.00   125.52   ; H-Oh-Cah
685   684   1041  1     110.00   125.52   ; H-Oh-Cah
685   684   1046  1     110.00   125.52   ; H-Oh-Cah
731   684   1041  1     98.22    KANGLE ; Cah-Oh-Cah
731   684   1046  1     98.22    KANGLE ; Cah-Oh-Cah
1041  684   1046  1     97.93    KANGLE ; Cah-Oh-Cah
279   686   324   1     98.51    KANGLE ; Oh-Cah-Oh
279   686   329   1     98.49    KANGLE ; Oh-Cah-Oh
279   686   637   1     81.82    KANGLE ; Oh-Cah-Oh
279   686   642   1     81.82    KANGLE ; Oh-Cah-Oh
279   686   687   1     179.79   KANGLE ; Oh-Cah-Oh
324   686   329   1     98.36    KANGLE ; Oh-Cah-Oh
324   686   637   1     81.81    KANGLE ; Oh-Cah-Oh
324   686   642   1     179.66   KANGLE ; Oh-Cah-Oh
324   686   687   1     81.62    KANGLE ; Oh-Cah-Oh
329   686   637   1     179.62   KANGLE ; Oh-Cah-Oh
329   686   642   1     81.65    KANGLE ; Oh-Cah-Oh
329   686   687   1     81.65    KANGLE ; Oh-Cah-Oh
637   686   642   1     98.17    KANGLE ; Oh-Cah-Oh
637   686   687   1     98.04    KANGLE ; Oh-Cah-Oh
642   686   687   1     98.04    KANGLE ; Oh-Cah-Oh
371   687   376   1     97.99    KANGLE ; Cah-Oh-Cah
371   687   686   1     98.19    KANGLE ; Cah-Oh-Cah
371   687   688   1     110.00   125.52   ; Cah-Oh-H
376   687   686   1     98.19    KANGLE ; Cah-Oh-Cah
376   687   688   1     110.00   125.52   ; Cah-Oh-H
686   687   688   1     110.00   125.52   ; Cah-Oh-H
690   689   736   1     110.00   125.52   ; H-Oh-Cah
690   689   1046  1     110.00   125.52   ; H-Oh-Cah
690   689   1051  1     110.00   125.52   ; H-Oh-Cah
736   689   1046  1     98.01    KANGLE ; Cah-Oh-Cah
736   689   1051  1     98.41    KANGLE ; Cah-Oh-Cah
1046  689   1051  1     98.09    KANGLE ; Cah-Oh-Cah
284   691   329   1     98.51    KANGLE ; Oh-Cah-Oh
284   691   334   1     98.51    KANGLE ; Oh-Cah-Oh
284   691   642   1     81.85    KANGLE ; Oh-Cah-Oh
284   691   647   1     81.82    KANGLE ; Oh-Cah-Oh
284   691   692   1     179.79   KANGLE ; Oh-Cah-Oh
329   691   334   1     98.20    KANGLE ; Oh-Cah-Oh
329   691   642   1     81.65    KANGLE ; Oh-Cah-Oh
329   691   647   1     179.66   KANGLE ; Oh-Cah-Oh
329   691   692   1     81.62    KANGLE ; Oh-Cah-Oh
334   691   642   1     179.63   KANGLE ; Oh-Cah-Oh
334   691   647   1     81.81    KANGLE ; Oh-Cah-Oh
334   691   692   1     81.62    KANGLE ; Oh-Cah-Oh
642   691   647   1     98.33    KANGLE ; Oh-Cah-Oh
642   691   692   1     98.02    KANGLE ; Oh-Cah-Oh
647   691   692   1     98.04    KANGLE ; Oh-Cah-Oh
376   692   381   1     98.15    KANGLE ; Cah-Oh-Cah
376   692   691   1     98.17    KANGLE ; Cah-Oh-Cah
376   692   693   1     110.00   125.52   ; Cah-Oh-H
381   692   691   1     98.19    KANGLE ; Cah-Oh-Cah
381   692   693   1     110.00   125.52   ; Cah-Oh-H
691   692   693   1     110.00   125.52   ; Cah-Oh-H
695   694   741   1     110.00   125.52   ; H-Oh-Cah
695   694   1051  1     110.00   125.52   ; H-Oh-Cah
695   694   1056  1     110.00   125.52   ; H-Oh-Cah
741   694   1051  1     98.22    KANGLE ; Cah-Oh-Cah
741   694   1056  1     98.22    KANGLE ; Cah-Oh-Cah
1051  694   1056  1     97.93    KANGLE ; Cah-Oh-Cah
289   696   334   1     98.51    KANGLE ; Oh-Cah-Oh
289   696   339   1     98.49    KANGLE ; Oh-Cah-Oh
289   696   647   1     81.82    KANGLE ; Oh-Cah-Oh
289   696   652   1     81.82    KANGLE ; Oh-Cah-Oh
289   696   697   1     179.79   KANGLE ; Oh-Cah-Oh
334   696   339   1     98.36    KANGLE ; Oh-Cah-Oh
334   696   647   1     81.81    KANGLE ; Oh-Cah-Oh
334   696   652   1     179.66   KANGLE ; Oh-Cah-Oh
334   696   697   1     81.62    KANGLE ; Oh-Cah-Oh
339   696   647   1     179.62   KANGLE ; Oh-Cah-Oh
339   696   652   1     81.65    KANGLE ; Oh-Cah-Oh
339   696   697   1     81.65    KANGLE ; Oh-Cah-Oh
647   696   652   1     98.17    KANGLE ; Oh-Cah-Oh
647   696   697   1     98.04    KANGLE ; Oh-Cah-Oh
652   696   697   1     98.04    KANGLE ; Oh-Cah-Oh
381   697   386   1     97.99    KANGLE ; Cah-Oh-Cah
381   697   696   1     98.19    KANGLE ; Cah-Oh-Cah
381   697   698   1     110.00   125.52   ; Cah-Oh-H
386   697   696   1     98.19    KANGLE ; Cah-Oh-Cah
386   697   698   1     110.00   125.52   ; Cah-Oh-H
696   697   698   1     110.00   125.52   ; Cah-Oh-H
700   699   746   1     110.00   125.52   ; H-Oh-Cah
700   699   1056  1     110.00   125.52   ; H-Oh-Cah
700   699   1061  1     110.00   125.52   ; H-Oh-Cah
746   699   1056  1     98.01    KANGLE ; Cah-Oh-Cah
746   699   1061  1     98.41    KANGLE ; Cah-Oh-Cah
1056  699   1061  1     98.09    KANGLE ; Cah-Oh-Cah
294   701   339   1     98.51    KANGLE ; Oh-Cah-Oh
294   701   344   1     98.51    KANGLE ; Oh-Cah-Oh
294   701   652   1     81.85    KANGLE ; Oh-Cah-Oh
294   701   657   1     81.82    KANGLE ; Oh-Cah-Oh
294   701   702   1     179.79   KANGLE ; Oh-Cah-Oh
339   701   344   1     98.20    KANGLE ; Oh-Cah-Oh
339   701   652   1     81.65    KANGLE ; Oh-Cah-Oh
339   701   657   1     179.66   KANGLE ; Oh-Cah-Oh
339   701   702   1     81.62    KANGLE ; Oh-Cah-Oh
344   701   652   1     179.63   KANGLE ; Oh-Cah-Oh
344   701   657   1     81.81    KANGLE ; Oh-Cah-Oh
344   701   702   1     81.62    KANGLE ; Oh-Cah-Oh
652   701   657   1     98.33    KANGLE ; Oh-Cah-Oh
652   701   702   1     98.02    KANGLE ; Oh-Cah-Oh
657   701   702   1     98.04    KANGLE ; Oh-Cah-Oh
386   702   391   1     98.15    KANGLE ; Cah-Oh-Cah
386   702   701   1     98.17    KANGLE ; Cah-Oh-Cah
386   702   703   1     110.00   125.52   ; Cah-Oh-H
391   702   701   1     98.19    KANGLE ; Cah-Oh-Cah
391   702   703   1     110.00   125.52   ; Cah-Oh-H
701   702   703   1     110.00   125.52   ; Cah-Oh-H
705   704   751   1     110.00   125.52   ; H-Oh-Cah
705   704   1061  1     110.00   125.52   ; H-Oh-Cah
705   704   1066  1     110.00   125.52   ; H-Oh-Cah
751   704   1061  1     98.22    KANGLE ; Cah-Oh-Cah
751   704   1066  1     98.22    KANGLE ; Cah-Oh-Cah
1061  704   1066  1     97.93    KANGLE ; Cah-Oh-Cah
299   706   344   1     98.51    KANGLE ; Oh-Cah-Oh
299   706   349   1     98.49    KANGLE ; Oh-Cah-Oh
299   706   657   1     81.82    KANGLE ; Oh-Cah-Oh
299   706   662   1     81.82    KANGLE ; Oh-Cah-Oh
299   706   707   1     179.79   KANGLE ; Oh-Cah-Oh
344   706   349   1     98.36    KANGLE ; Oh-Cah-Oh
344   706   657   1     81.81    KANGLE ; Oh-Cah-Oh
344   706   662   1     179.66   KANGLE ; Oh-Cah-Oh
344   706   707   1     81.62    KANGLE ; Oh-Cah-Oh
349   706   657   1     179.62   KANGLE ; Oh-Cah-Oh
349   706   662   1     81.65    KANGLE ; Oh-Cah-Oh
349   706   707   1     81.65    KANGLE ; Oh-Cah-Oh
657   706   662   1     98.17    KANGLE ; Oh-Cah-Oh
657   706   707   1     98.04    KANGLE ; Oh-Cah-Oh
662   706   707   1     98.04    KANGLE ; Oh-Cah-Oh
391   707   396   1     98.15    KANGLE ; Cah-Oh-Cah
391   707   706   1     98.19    KANGLE ; Cah-Oh-Cah
391   707   708   1     110.00   125.52   ; Cah-Oh-H
396   707   706   1     98.17    KANGLE ; Cah-Oh-Cah
396   707   708   1     110.00   125.52   ; Cah-Oh-H
706   707   708   1     110.00   125.52   ; Cah-Oh-H
710   709   756   1     110.00   125.52   ; H-Oh-Cah
710   709   1066  1     110.00   125.52   ; H-Oh-Cah
710   709   1071  1     110.00   125.52   ; H-Oh-Cah
756   709   1066  1     98.20    KANGLE ; Cah-Oh-Cah
756   709   1071  1     98.22    KANGLE ; Cah-Oh-Cah
1066  709   1071  1     98.09    KANGLE ; Cah-Oh-Cah
304   711   349   1     98.51    KANGLE ; Oh-Cah-Oh
304   711   354   1     98.51    KANGLE ; Oh-Cah-Oh
304   711   662   1     81.85    KANGLE ; Oh-Cah-Oh
304   711   667   1     81.82    KANGLE ; Oh-Cah-Oh
304   711   712   1     179.79   KANGLE ; Oh-Cah-Oh
349   711   354   1     98.20    KANGLE ; Oh-Cah-Oh
349   711   662   1     81.65    KANGLE ; Oh-Cah-Oh
349   711   667   1     179.66   KANGLE ; Oh-Cah-Oh
349   711   712   1     81.62    KANGLE ; Oh-Cah-Oh
354   711   662   1     179.63   KANGLE ; Oh-Cah-Oh
354   711   667   1     81.81    KANGLE ; Oh-Cah-Oh
354   711   712   1     81.62    KANGLE ; Oh-Cah-Oh
662   711   667   1     98.33    KANGLE ; Oh-Cah-Oh
662   711   712   1     98.02    KANGLE ; Oh-Cah-Oh
667   711   712   1     98.04    KANGLE ; Oh-Cah-Oh
396   712   401   1     97.99    KANGLE ; Cah-Oh-Cah
396   712   711   1     98.19    KANGLE ; Cah-Oh-Cah
396   712   713   1     110.00   125.52   ; Cah-Oh-H
401   712   711   1     98.19    KANGLE ; Cah-Oh-Cah
401   712   713   1     110.00   125.52   ; Cah-Oh-H
711   712   713   1     110.00   125.52   ; Cah-Oh-H
715   714   761   1     110.00   125.52   ; H-Oh-Cah
715   714   1071  1     110.00   125.52   ; H-Oh-Cah
715   714   1076  1     110.00   125.52   ; H-Oh-Cah
761   714   1071  1     98.22    KANGLE ; Cah-Oh-Cah
761   714   1076  1     98.22    KANGLE ; Cah-Oh-Cah
1071  714   1076  1     97.93    KANGLE ; Cah-Oh-Cah
309   716   354   1     98.51    KANGLE ; Oh-Cah-Oh
309   716   359   1     98.49    KANGLE ; Oh-Cah-Oh
309   716   667   1     81.82    KANGLE ; Oh-Cah-Oh
309   716   672   1     81.82    KANGLE ; Oh-Cah-Oh
309   716   717   1     179.79   KANGLE ; Oh-Cah-Oh
354   716   359   1     98.36    KANGLE ; Oh-Cah-Oh
354   716   667   1     81.81    KANGLE ; Oh-Cah-Oh
354   716   672   1     179.66   KANGLE ; Oh-Cah-Oh
354   716   717   1     81.62    KANGLE ; Oh-Cah-Oh
359   716   667   1     179.62   KANGLE ; Oh-Cah-Oh
359   716   672   1     81.65    KANGLE ; Oh-Cah-Oh
359   716   717   1     81.65    KANGLE ; Oh-Cah-Oh
667   716   672   1     98.17    KANGLE ; Oh-Cah-Oh
667   716   717   1     98.04    KANGLE ; Oh-Cah-Oh
672   716   717   1     98.04    KANGLE ; Oh-Cah-Oh
361   717   401   1     98.07    KANGLE ; Cah-Oh-Cah
361   717   716   1     98.18    KANGLE ; Cah-Oh-Cah
361   717   718   1     110.00   125.52   ; Cah-Oh-H
401   717   716   1     98.19    KANGLE ; Cah-Oh-Cah
401   717   718   1     110.00   125.52   ; Cah-Oh-H
716   717   718   1     110.00   125.52   ; Cah-Oh-H
720   719   721   1     110.00   125.52   ; H-Oh-Cah
720   719   1036  1     110.00   125.52   ; H-Oh-Cah
720   719   1076  1     110.00   125.52   ; H-Oh-Cah
721   719   1036  1     98.33    KANGLE ; Cah-Oh-Cah
721   719   1076  1     98.10    KANGLE ; Cah-Oh-Cah
1036  719   1076  1     98.01    KANGLE ; Cah-Oh-Cah
364   721   404   1     98.01    KANGLE ; Oh-Cah-Oh
364   721   719   1     98.13    KANGLE ; Oh-Cah-Oh
364   721   722   1     81.62    KANGLE ; Oh-Cah-Oh
364   721   1037  1     81.90    KANGLE ; Oh-Cah-Oh
364   721   1077  1     179.73   KANGLE ; Oh-Cah-Oh
404   721   719   1     98.30    KANGLE ; Oh-Cah-Oh
404   721   722   1     81.63    KANGLE ; Oh-Cah-Oh
404   721   1037  1     179.85   KANGLE ; Oh-Cah-Oh
404   721   1077  1     81.75    KANGLE ; Oh-Cah-Oh
719   721   722   1     179.73   KANGLE ; Oh-Cah-Oh
719   721   1037  1     81.59    KANGLE ; Oh-Cah-Oh
719   721   1077  1     81.79    KANGLE ; Oh-Cah-Oh
722   721   1037  1     98.47    KANGLE ; Oh-Cah-Oh
722   721   1077  1     98.45    KANGLE ; Oh-Cah-Oh
1037  721   1077  1     98.34    KANGLE ; Oh-Cah-Oh
721   722   723   1     110.00   125.52   ; Cah-Oh-H
721   722   766   1     98.32    KANGLE ; Cah-Oh-Cah
721   722   771   1     98.32    KANGLE ; Cah-Oh-Cah
723   722   766   1     110.00   125.52   ; H-Oh-Cah
723   722   771   1     110.00   125.52   ; H-Oh-Cah
766   722   771   1     98.45    KANGLE ; Cah-Oh-Cah
725   724   1081  1     110.00   125.52   ; H-Oh-Cah
725   724   1086  1     110.00   125.52   ; H-Oh-Cah
725   724   1131  1     110.00   125.52   ; H-Oh-Cah
1081  724   1086  1     98.36    KANGLE ; Cah-Oh-Cah
1081  724   1131  1     98.44    KANGLE ; Cah-Oh-Cah
1086  724   1131  1     98.41    KANGLE ; Cah-Oh-Cah
364   726   369   1     98.09    KANGLE ; Oh-Cah-Oh
364   726   679   1     98.20    KANGLE ; Oh-Cah-Oh
364   726   727   1     81.46    KANGLE ; Oh-Cah-Oh
364   726   1037  1     81.59    KANGLE ; Oh-Cah-Oh
364   726   1042  1     179.88   KANGLE ; Oh-Cah-Oh
369   726   679   1     98.22    KANGLE ; Oh-Cah-Oh
369   726   727   1     81.81    KANGLE ; Oh-Cah-Oh
369   726   1037  1     179.66   KANGLE ; Oh-Cah-Oh
369   726   1042  1     81.90    KANGLE ; Oh-Cah-Oh
679   726   727   1     179.66   KANGLE ; Oh-Cah-Oh
679   726   1037  1     81.71    KANGLE ; Oh-Cah-Oh
679   726   1042  1     81.69    KANGLE ; Oh-Cah-Oh
727   726   1037  1     98.25    KANGLE ; Oh-Cah-Oh
727   726   1042  1     98.65    KANGLE ; Oh-Cah-Oh
1037  726   1042  1     98.42    KANGLE ; Oh-Cah-Oh
726   727   728   1     110.00   125.52   ; Cah-Oh-H
726   727   771   1     98.50    KANGLE ; Cah-Oh-Cah
726   727   776   1     98.10    KANGLE ; Cah-Oh-Cah
728   727   771   1     110.00   125.52   ; H-Oh-Cah
728   727   776   1     110.00   125.52   ; H-Oh-Cah
771   727   776   1     98.60    KANGLE ; Cah-Oh-Cah
730   729   1086  1     110.00   125.52   ; H-Oh-Cah
730   729   1091  1     110.00   125.52   ; H-Oh-Cah
730   729   1136  1     110.00   125.52   ; H-Oh-Cah
1086  729   1091  1     98.20    KANGLE ; Cah-Oh-Cah
1086  729   1136  1     98.44    KANGLE ; Cah-Oh-Cah
1091  729   1136  1     98.44    KANGLE ; Cah-Oh-Cah
369   731   374   1     97.93    KANGLE ; Oh-Cah-Oh
369   731   684   1     98.22    KANGLE ; Oh-Cah-Oh
369   731   732   1     81.62    KANGLE ; Oh-Cah-Oh
369   731   1042  1     81.90    KANGLE ; Oh-Cah-Oh
369   731   1047  1     179.80   KANGLE ; Oh-Cah-Oh
374   731   684   1     98.22    KANGLE ; Oh-Cah-Oh
374   731   732   1     81.62    KANGLE ; Oh-Cah-Oh
374   731   1042  1     179.80   KANGLE ; Oh-Cah-Oh
374   731   1047  1     81.90    KANGLE ; Oh-Cah-Oh
684   731   732   1     179.76   KANGLE ; Oh-Cah-Oh
684   731   1042  1     81.69    KANGLE ; Oh-Cah-Oh
684   731   1047  1     81.69    KANGLE ; Oh-Cah-Oh
732   731   1042  1     98.47    KANGLE ; Oh-Cah-Oh
732   731   1047  1     98.47    KANGLE ; Oh-Cah-Oh
1042  731   1047  1     98.26    KANGLE ; Oh-Cah-Oh
731   732   733   1     110.00   125.52   ; Cah-Oh-H
731   732   776   1     98.32    KANGLE ; Cah-Oh-Cah
731   732   781   1     98.32    KANGLE ; Cah-Oh-Cah
733   732   776   1     110.00   125.52   ; H-Oh-Cah
733   732   781   1     110.00   125.52   ; H-Oh-Cah
776   732   781   1     98.45    KANGLE ; Cah-Oh-Cah
735   734   1091  1     110.00   125.52   ; H-Oh-Cah
735   734   1096  1     110.00   125.52   ; H-Oh-Cah
735   734   1141  1     110.00   125.52   ; H-Oh-Cah
1091  734   1096  1     98.36    KANGLE ; Cah-Oh-Cah
1091  734   1141  1     98.44    KANGLE ; Cah-Oh-Cah
1096  734   1141  1     98.41    KANGLE ; Cah-Oh-Cah
374   736   379   1     98.09    KANGLE ; Oh-Cah-Oh
374   736   689   1     98.41    KANGLE ; Oh-Cah-Oh
374   736   737   1     81.62    KANGLE ; Oh-Cah-Oh
374   736   1047  1     81.90    KANGLE ; Oh-Cah-Oh
374   736   1052  1     179.66   KANGLE ; Oh-Cah-Oh
379   736   689   1     98.01    KANGLE ; Oh-Cah-Oh
379   736   737   1     81.65    KANGLE ; Oh-Cah-Oh
379   736   1047  1     179.88   KANGLE ; Oh-Cah-Oh
379   736   1052  1     81.59    KANGLE ; Oh-Cah-Oh
689   736   737   1     179.66   KANGLE ; Oh-Cah-Oh
689   736   1047  1     81.87    KANGLE ; Oh-Cah-Oh
689   736   1052  1     81.53    KANGLE ; Oh-Cah-Oh
737   736   1047  1     98.47    KANGLE ; Oh-Cah-Oh
737   736   1052  1     98.44    KANGLE ; Oh-Cah-Oh
1047  736   1052  1     98.42    KANGLE ; Oh-Cah-Oh
736   737   738   1     110.00   125.52   ; Cah-Oh-H
736   737   781   1     98.32    KANGLE ; Cah-Oh-Cah
736   737   786   1     98.29    KANGLE ; Cah-Oh-Cah
738   737   781   1     110.00   125.52   ; H-Oh-Cah
738   737   786   1     110.00   125.52   ; H-Oh-Cah
781   737   786   1     98.60    KANGLE ; Cah-Oh-Cah
740   739   1096  1     110.00   125.52   ; H-Oh-Cah
740   739   1101  1     110.00   125.52   ; H-Oh-Cah
740   739   1146  1     110.00   125.52   ; H-Oh-Cah
1096  739   1101  1     98.20    KANGLE ; Cah-Oh-Cah
1096  739   1146  1     98.44    KANGLE ; Cah-Oh-Cah
1101  739   1146  1     98.44    KANGLE ; Cah-Oh-Cah
379   741   384   1     97.93    KANGLE ; Oh-Cah-Oh
379   741   694   1     98.22    KANGLE ; Oh-Cah-Oh
379   741   742   1     81.62    KANGLE ; Oh-Cah-Oh
379   741   1052  1     81.90    KANGLE ; Oh-Cah-Oh
379   741   1057  1     179.80   KANGLE ; Oh-Cah-Oh
384   741   694   1     98.22    KANGLE ; Oh-Cah-Oh
384   741   742   1     81.62    KANGLE ; Oh-Cah-Oh
384   741   1052  1     179.80   KANGLE ; Oh-Cah-Oh
384   741   1057  1     81.90    KANGLE ; Oh-Cah-Oh
694   741   742   1     179.76   KANGLE ; Oh-Cah-Oh
694   741   1052  1     81.69    KANGLE ; Oh-Cah-Oh
694   741   1057  1     81.69    KANGLE ; Oh-Cah-Oh
742   741   1052  1     98.47    KANGLE ; Oh-Cah-Oh
742   741   1057  1     98.47    KANGLE ; Oh-Cah-Oh
1052  741   1057  1     98.26    KANGLE ; Oh-Cah-Oh
741   742   743   1     110.00   125.52   ; Cah-Oh-H
741   742   786   1     98.32    KANGLE ; Cah-Oh-Cah
741   742   791   1     98.32    KANGLE ; Cah-Oh-Cah
743   742   786   1     110.00   125.52   ; H-Oh-Cah
743   742   791   1     110.00   125.52   ; H-Oh-Cah
786   742   791   1     98.45    KANGLE ; Cah-Oh-Cah
745   744   1101  1     110.00   125.52   ; H-Oh-Cah
745   744   1106  1     110.00   125.52   ; H-Oh-Cah
745   744   1151  1     110.00   125.52   ; H-Oh-Cah
1101  744   1106  1     98.20    KANGLE ; Cah-Oh-Cah
1101  744   1151  1     98.44    KANGLE ; Cah-Oh-Cah
1106  744   1151  1     98.44    KANGLE ; Cah-Oh-Cah
384   746   389   1     98.09    KANGLE ; Oh-Cah-Oh
384   746   699   1     98.41    KANGLE ; Oh-Cah-Oh
384   746   747   1     81.62    KANGLE ; Oh-Cah-Oh
384   746   1057  1     81.90    KANGLE ; Oh-Cah-Oh
384   746   1062  1     179.66   KANGLE ; Oh-Cah-Oh
389   746   699   1     98.01    KANGLE ; Oh-Cah-Oh
389   746   747   1     81.65    KANGLE ; Oh-Cah-Oh
389   746   1057  1     179.88   KANGLE ; Oh-Cah-Oh
389   746   1062  1     81.59    KANGLE ; Oh-Cah-Oh
699   746   747   1     179.66   KANGLE ; Oh-Cah-Oh
699   746   1057  1     81.87    KANGLE ; Oh-Cah-Oh
699   746   1062  1     81.53    KANGLE ; Oh-Cah-Oh
747   746   1057  1     98.47    KANGLE ; Oh-Cah-Oh
747   746   1062  1     98.44    KANGLE ; Oh-Cah-Oh
1057  746   1062  1     98.42    KANGLE ; Oh-Cah-Oh
746   747   748   1     110.00   125.52   ; Cah-Oh-H
746   747   791   1     98.32    KANGLE ; Cah-Oh-Cah
746   747   796   1     98.29    KANGLE ; Cah-Oh-Cah
748   747   791   1     110.00   125.52   ; H-Oh-Cah
748   747   796   1     110.00   125.52   ; H-Oh-Cah
791   747   796   1     98.60    KANGLE ; Cah-Oh-Cah
750   749   1106  1     110.00   125.52   ; H-Oh-Cah
750   749   1111  1     110.00   125.52   ; H-Oh-Cah
750   749   1156  1     110.00   125.52   ; H-Oh-Cah
1106  749   1111  1     98.36    KANGLE ; Cah-Oh-Cah
1106  749   1156  1     98.41    KANGLE ; Cah-Oh-Cah
1111  749   1156  1     98.44    KANGLE ; Cah-Oh-Cah
389   751   394   1     97.93    KANGLE ; Oh-Cah-Oh
389   751   704   1     98.22    KANGLE ; Oh-Cah-Oh
389   751   752   1     81.62    KANGLE ; Oh-Cah-Oh
389   751   1062  1     81.90    KANGLE ; Oh-Cah-Oh
389   751   1067  1     179.80   KANGLE ; Oh-Cah-Oh
394   751   704   1     98.22    KANGLE ; Oh-Cah-Oh
394   751   752   1     81.62    KANGLE ; Oh-Cah-Oh
394   751   1062  1     179.80   KANGLE ; Oh-Cah-Oh
394   751   1067  1     81.90    KANGLE ; Oh-Cah-Oh
704   751   752   1     179.76   KANGLE ; Oh-Cah-Oh
704   751   1062  1     81.69    KANGLE ; Oh-Cah-Oh
704   751   1067  1     81.69    KANGLE ; Oh-Cah-Oh
752   751   1062  1     98.47    KANGLE ; Oh-Cah-Oh
752   751   1067  1     98.47    KANGLE ; Oh-Cah-Oh
1062  751   1067  1     98.26    KANGLE ; Oh-Cah-Oh
751   752   753   1     110.00   125.52   ; Cah-Oh-H
751   752   796   1     98.32    KANGLE ; Cah-Oh-Cah
751   752   801   1     98.32    KANGLE ; Cah-Oh-Cah
753   752   796   1     110.00   125.52   ; H-Oh-Cah
753   752   801   1     110.00   125.52   ; H-Oh-Cah
796   752   801   1     98.45    KANGLE ; Cah-Oh-Cah
755   754   1111  1     110.00   125.52   ; H-Oh-Cah
755   754   1116  1     110.00   125.52   ; H-Oh-Cah
755   754   1161  1     110.00   125.52   ; H-Oh-Cah
1111  754   1116  1     98.36    KANGLE ; Cah-Oh-Cah
1111  754   1161  1     98.44    KANGLE ; Cah-Oh-Cah
1116  754   1161  1     98.41    KANGLE ; Cah-Oh-Cah
394   756   399   1     98.09    KANGLE ; Oh-Cah-Oh
394   756   709   1     98.20    KANGLE ; Oh-Cah-Oh
394   756   757   1     81.46    KANGLE ; Oh-Cah-Oh
394   756   1067  1     81.59    KANGLE ; Oh-Cah-Oh
394   756   1072  1     179.88   KANGLE ; Oh-Cah-Oh
399   756   709   1     98.22    KANGLE ; Oh-Cah-Oh
399   756   757   1     81.81    KANGLE ; Oh-Cah-Oh
399   756   1067  1     179.66   KANGLE ; Oh-Cah-Oh
399   756   1072  1     81.90    KANGLE ; Oh-Cah-Oh
709   756   757   1     179.66   KANGLE ; Oh-Cah-Oh
709   756   1067  1     81.71    KANGLE ; Oh-Cah-Oh
709   756   1072  1     81.69    KANGLE ; Oh-Cah-Oh
757   756   1067  1     98.25    KANGLE ; Oh-Cah-Oh
757   756   1072  1     98.65    KANGLE ; Oh-Cah-Oh
1067  756   1072  1     98.42    KANGLE ; Oh-Cah-Oh
756   757   758   1     110.00   125.52   ; Cah-Oh-H
756   757   801   1     98.50    KANGLE ; Cah-Oh-Cah
756   757   806   1     98.10    KANGLE ; Cah-Oh-Cah
758   757   801   1     110.00   125.52   ; H-Oh-Cah
758   757   806   1     110.00   125.52   ; H-Oh-Cah
801   757   806   1     98.60    KANGLE ; Cah-Oh-Cah
760   759   1116  1     110.00   125.52   ; H-Oh-Cah
760   759   1121  1     110.00   125.52   ; H-Oh-Cah
760   759   1166  1     110.00   125.52   ; H-Oh-Cah
1116  759   1121  1     98.20    KANGLE ; Cah-Oh-Cah
1116  759   1166  1     98.44    KANGLE ; Cah-Oh-Cah
1121  759   1166  1     98.44    KANGLE ; Cah-Oh-Cah
399   761   404   1     97.93    KANGLE ; Oh-Cah-Oh
399   761   714   1     98.22    KANGLE ; Oh-Cah-Oh
399   761   762   1     81.62    KANGLE ; Oh-Cah-Oh
399   761   1072  1     81.90    KANGLE ; Oh-Cah-Oh
399   761   1077  1     179.80   KANGLE ; Oh-Cah-Oh
404   761   714   1     98.22    KANGLE ; Oh-Cah-Oh
404   761   762   1     81.62    KANGLE ; Oh-Cah-Oh
404   761   1072  1     179.80   KANGLE ; Oh-Cah-Oh
404   761   1077  1     81.90    KANGLE ; Oh-Cah-Oh
714   761   762   1     179.76   KANGLE ; Oh-Cah-Oh
714   761   1072  1     81.69    KANGLE ; Oh-Cah-Oh
714   761   1077  1     81.69    KANGLE ; Oh-Cah-Oh
762   761   1072  1     98.47    KANGLE ; Oh-Cah-Oh
762   761   1077  1     98.47    KANGLE ; Oh-Cah-Oh
1072  761   1077  1     98.26    KANGLE ; Oh-Cah-Oh
761   762   763   1     110.00   125.52   ; Cah-Oh-H
761   762   766   1     98.30    KANGLE ; Cah-Oh-Cah
761   762   806   1     98.32    KANGLE ; Cah-Oh-Cah
763   762   766   1     110.00   125.52   ; H-Oh-Cah
763   762   806   1     110.00   125.52   ; H-Oh-Cah
766   762   806   1     98.53    KANGLE ; Cah-Oh-Cah
765   764   1081  1     110.00   125.52   ; H-Oh-Cah
765   764   1121  1     110.00   125.52   ; H-Oh-Cah
765   764   1126  1     110.00   125.52   ; H-Oh-Cah
1081  764   1121  1     98.28    KANGLE ; Cah-Oh-Cah
1081  764   1126  1     98.33    KANGLE ; Cah-Oh-Cah
1121  764   1126  1     98.53    KANGLE ; Cah-Oh-Cah
404   766   409   1     98.26    KANGLE ; Oh-Cah-Oh
404   766   449   1     98.06    KANGLE ; Oh-Cah-Oh
404   766   722   1     81.99    KANGLE ; Oh-Cah-Oh
404   766   762   1     81.82    KANGLE ; Oh-Cah-Oh
404   766   767   1     179.65   KANGLE ; Oh-Cah-Oh
409   766   449   1     98.01    KANGLE ; Oh-Cah-Oh
409   766   722   1     81.81    KANGLE ; Oh-Cah-Oh
409   766   762   1     179.66   KANGLE ; Oh-Cah-Oh
409   766   767   1     81.62    KANGLE ; Oh-Cah-Oh
449   766   722   1     179.82   KANGLE ; Oh-Cah-Oh
449   766   762   1     81.65    KANGLE ; Oh-Cah-Oh
449   766   767   1     81.63    KANGLE ; Oh-Cah-Oh
722   766   762   1     98.53    KANGLE ; Oh-Cah-Oh
722   766   767   1     98.32    KANGLE ; Oh-Cah-Oh
762   766   767   1     98.30    KANGLE ; Oh-Cah-Oh
766   767   768   1     110.00   125.52   ; Cah-Oh-H
766   767   811   1     98.51    KANGLE ; Cah-Oh-Cah
766   767   816   1     98.51    KANGLE ; Cah-Oh-Cah
768   767   811   1     110.00   125.52   ; H-Oh-Cah
768   767   816   1     110.00   125.52   ; H-Oh-Cah
811   767   816   1     98.20    KANGLE ; Cah-Oh-Cah
770   769   1126  1     110.00   125.52   ; H-Oh-Cah
770   769   1131  1     110.00   125.52   ; H-Oh-Cah
770   769   1176  1     110.00   125.52   ; H-Oh-Cah
1126  769   1131  1     98.20    KANGLE ; Cah-Oh-Cah
1126  769   1176  1     98.51    KANGLE ; Cah-Oh-Cah
1131  769   1176  1     98.51    KANGLE ; Cah-Oh-Cah
364   771   409   1     98.17    KANGLE ; Oh-Cah-Oh
364   771   414   1     98.14    KANGLE ; Oh-Cah-Oh
364   771   722   1     81.90    KANGLE ; Oh-Cah-Oh
364   771   727   1     81.90    KANGLE ; Oh-Cah-Oh
364   771   772   1     179.67   KANGLE ; Oh-Cah-Oh
409   771   414   1     98.09    KANGLE ; Oh-Cah-Oh
409   771   722   1     81.81    KANGLE ; Oh-Cah-Oh
409   771   727   1     179.74   KANGLE ; Oh-Cah-Oh
409   771   772   1     81.62    KANGLE ; Oh-Cah-Oh
414   771   722   1     179.90   KANGLE ; Oh-Cah-Oh
414   771   727   1     81.65    KANGLE ; Oh-Cah-Oh
414   771   772   1     81.65    KANGLE ; Oh-Cah-Oh
722   771   727   1     98.45    KANGLE ; Oh-Cah-Oh
722   771   772   1     98.32    KANGLE ; Oh-Cah-Oh
727   771   772   1     98.32    KANGLE ; Oh-Cah-Oh
771   772   773   1     110.00   125.52   ; Cah-Oh-H
771   772   816   1     98.51    KANGLE ; Cah-Oh-Cah
771   772   821   1     98.49    KANGLE ; Cah-Oh-Cah
773   772   816   1     110.00   125.52   ; H-Oh-Cah
773   772   821   1     110.00   125.52   ; H-Oh-Cah
816   772   821   1     98.36    KANGLE ; Cah-Oh-Cah
775   774   1131  1     110.00   125.52   ; H-Oh-Cah
775   774   1136  1     110.00   125.52   ; H-Oh-Cah
775   774   1181  1     110.00   125.52   ; H-Oh-Cah
1131  774   1136  1     98.36    KANGLE ; Cah-Oh-Cah
1131  774   1181  1     98.49    KANGLE ; Cah-Oh-Cah
1136  774   1181  1     98.51    KANGLE ; Cah-Oh-Cah
369   776   414   1     98.17    KANGLE ; Oh-Cah-Oh
369   776   419   1     98.17    KANGLE ; Oh-Cah-Oh
369   776   727   1     81.92    KANGLE ; Oh-Cah-Oh
369   776   732   1     81.90    KANGLE ; Oh-Cah-Oh
369   776   777   1     179.67   KANGLE ; Oh-Cah-Oh
414   776   419   1     97.93    KANGLE ; Oh-Cah-Oh
414   776   727   1     81.65    KANGLE ; Oh-Cah-Oh
414   776   732   1     179.74   KANGLE ; Oh-Cah-Oh
414   776   777   1     81.62    KANGLE ; Oh-Cah-Oh
419   776   727   1     179.58   KANGLE ; Oh-Cah-Oh
419   776   732   1     81.81    KANGLE ; Oh-Cah-Oh
419   776   777   1     81.62    KANGLE ; Oh-Cah-Oh
727   776   732   1     98.60    KANGLE ; Oh-Cah-Oh
727   776   777   1     98.29    KANGLE ; Oh-Cah-Oh
732   776   777   1     98.32    KANGLE ; Oh-Cah-Oh
776   777   778   1     110.00   125.52   ; Cah-Oh-H
776   777   821   1     98.51    KANGLE ; Cah-Oh-Cah
776   777   826   1     98.51    KANGLE ; Cah-Oh-Cah
778   777   821   1     110.00   125.52   ; H-Oh-Cah
778   777   826   1     110.00   125.52   ; H-Oh-Cah
821   777   826   1     98.20    KANGLE ; Cah-Oh-Cah
780   779   1136  1     110.00   125.52   ; H-Oh-Cah
780   779   1141  1     110.00   125.52   ; H-Oh-Cah
780   779   1186  1     110.00   125.52   ; H-Oh-Cah
1136  779   1141  1     98.20    KANGLE ; Cah-Oh-Cah
1136  779   1186  1     98.51    KANGLE ; Cah-Oh-Cah
1141  779   1186  1     98.51    KANGLE ; Cah-Oh-Cah
374   781   419   1     98.17    KANGLE ; Oh-Cah-Oh
374   781   424   1     98.14    KANGLE ; Oh-Cah-Oh
374   781   732   1     81.90    KANGLE ; Oh-Cah-Oh
374   781   737   1     81.90    KANGLE ; Oh-Cah-Oh
374   781   782   1     179.67   KANGLE ; Oh-Cah-Oh
419   781   424   1     98.09    KANGLE ; Oh-Cah-Oh
419   781   732   1     81.81    KANGLE ; Oh-Cah-Oh
419   781   737   1     179.74   KANGLE ; Oh-Cah-Oh
419   781   782   1     81.62    KANGLE ; Oh-Cah-Oh
424   781   732   1     179.90   KANGLE ; Oh-Cah-Oh
424   781   737   1     81.65    KANGLE ; Oh-Cah-Oh
424   781   782   1     81.65    KANGLE ; Oh-Cah-Oh
732   781   737   1     98.45    KANGLE ; Oh-Cah-Oh
732   781   782   1     98.32    KANGLE ; Oh-Cah-Oh
737   781   782   1     98.32    KANGLE ; Oh-Cah-Oh
781   782   783   1     110.00   125.52   ; Cah-Oh-H
781   782   826   1     98.51    KANGLE ; Cah-Oh-Cah
781   782   831   1     98.49    KANGLE ; Cah-Oh-Cah
783   782   826   1     110.00   125.52   ; H-Oh-Cah
783   782   831   1     110.00   125.52   ; H-Oh-Cah
826   782   831   1     98.36    KANGLE ; Cah-Oh-Cah
785   784   1141  1     110.00   125.52   ; H-Oh-Cah
785   784   1146  1     110.00   125.52   ; H-Oh-Cah
785   784   1191  1     110.00   125.52   ; H-Oh-Cah
1141  784   1146  1     98.36    KANGLE ; Cah-Oh-Cah
1141  784   1191  1     98.49    KANGLE ; Cah-Oh-Cah
1146  784   1191  1     98.51    KANGLE ; Cah-Oh-Cah
379   786   424   1     98.17    KANGLE ; Oh-Cah-Oh
379   786   429   1     98.17    KANGLE ; Oh-Cah-Oh
379   786   737   1     81.92    KANGLE ; Oh-Cah-Oh
379   786   742   1     81.90    KANGLE ; Oh-Cah-Oh
379   786   787   1     179.67   KANGLE ; Oh-Cah-Oh
424   786   429   1     97.93    KANGLE ; Oh-Cah-Oh
424   786   737   1     81.65    KANGLE ; Oh-Cah-Oh
424   786   742   1     179.74   KANGLE ; Oh-Cah-Oh
424   786   787   1     81.62    KANGLE ; Oh-Cah-Oh
429   786   737   1     179.58   KANGLE ; Oh-Cah-Oh
429   786   742   1     81.81    KANGLE ; Oh-Cah-Oh
429   786   787   1     81.62    KANGLE ; Oh-Cah-Oh
737   786   742   1     98.60    KANGLE ; Oh-Cah-Oh
737   786   787   1     98.29    KANGLE ; Oh-Cah-Oh
742   786   787   1     98.32    KANGLE ; Oh-Cah-Oh
786   787   788   1     110.00   125.52   ; Cah-Oh-H
786   787   831   1     98.51    KANGLE ; Cah-Oh-Cah
786   787   836   1     98.51    KANGLE ; Cah-Oh-Cah
788   787   831   1     110.00   125.52   ; H-Oh-Cah
788   787   836   1     110.00   125.52   ; H-Oh-Cah
831   787   836   1     98.20    KANGLE ; Cah-Oh-Cah
790   789   1146  1     110.00   125.52   ; H-Oh-Cah
790   789   1151  1     110.00   125.52   ; H-Oh-Cah
790   789   1196  1     110.00   125.52   ; H-Oh-Cah
1146  789   1151  1     98.20    KANGLE ; Cah-Oh-Cah
1146  789   1196  1     98.51    KANGLE ; Cah-Oh-Cah
1151  789   1196  1     98.51    KANGLE ; Cah-Oh-Cah
384   791   429   1     98.17    KANGLE ; Oh-Cah-Oh
384   791   434   1     98.14    KANGLE ; Oh-Cah-Oh
384   791   742   1     81.90    KANGLE ; Oh-Cah-Oh
384   791   747   1     81.90    KANGLE ; Oh-Cah-Oh
384   791   792   1     179.67   KANGLE ; Oh-Cah-Oh
429   791   434   1     98.09    KANGLE ; Oh-Cah-Oh
429   791   742   1     81.81    KANGLE ; Oh-Cah-Oh
429   791   747   1     179.74   KANGLE ; Oh-Cah-Oh
429   791   792   1     81.62    KANGLE ; Oh-Cah-Oh
434   791   742   1     179.90   KANGLE ; Oh-Cah-Oh
434   791   747   1     81.65    KANGLE ; Oh-Cah-Oh
434   791   792   1     81.65    KANGLE ; Oh-Cah-Oh
742   791   747   1     98.45    KANGLE ; Oh-Cah-Oh
742   791   792   1     98.32    KANGLE ; Oh-Cah-Oh
747   791   792   1     98.32    KANGLE ; Oh-Cah-Oh
791   792   793   1     110.00   125.52   ; Cah-Oh-H
791   792   836   1     98.51    KANGLE ; Cah-Oh-Cah
791   792   841   1     98.51    KANGLE ; Cah-Oh-Cah
793   792   836   1     110.00   125.52   ; H-Oh-Cah
793   792   841   1     110.00   125.52   ; H-Oh-Cah
836   792   841   1     98.20    KANGLE ; Cah-Oh-Cah
795   794   1151  1     110.00   125.52   ; H-Oh-Cah
795   794   1156  1     110.00   125.52   ; H-Oh-Cah
795   794   1201  1     110.00   125.52   ; H-Oh-Cah
1151  794   1156  1     98.36    KANGLE ; Cah-Oh-Cah
1151  794   1201  1     98.30    KANGLE ; Cah-Oh-Cah
1156  794   1201  1     98.70    KANGLE ; Cah-Oh-Cah
389   796   434   1     98.17    KANGLE ; Oh-Cah-Oh
389   796   439   1     98.17    KANGLE ; Oh-Cah-Oh
389   796   747   1     81.92    KANGLE ; Oh-Cah-Oh
389   796   752   1     81.90    KANGLE ; Oh-Cah-Oh
389   796   797   1     179.67   KANGLE ; Oh-Cah-Oh
434   796   439   1     97.93    KANGLE ; Oh-Cah-Oh
434   796   747   1     81.65    KANGLE ; Oh-Cah-Oh
434   796   752   1     179.74   KANGLE ; Oh-Cah-Oh
434   796   797   1     81.62    KANGLE ; Oh-Cah-Oh
439   796   747   1     179.58   KANGLE ; Oh-Cah-Oh
439   796   752   1     81.81    KANGLE ; Oh-Cah-Oh
439   796   797   1     81.62    KANGLE ; Oh-Cah-Oh
747   796   752   1     98.60    KANGLE ; Oh-Cah-Oh
747   796   797   1     98.29    KANGLE ; Oh-Cah-Oh
752   796   797   1     98.32    KANGLE ; Oh-Cah-Oh
796   797   798   1     110.00   125.52   ; Cah-Oh-H
796   797   841   1     98.49    KANGLE ; Cah-Oh-Cah
796   797   846   1     98.51    KANGLE ; Cah-Oh-Cah
798   797   841   1     110.00   125.52   ; H-Oh-Cah
798   797   846   1     110.00   125.52   ; H-Oh-Cah
841   797   846   1     98.36    KANGLE ; Cah-Oh-Cah
800   799   1156  1     110.00   125.52   ; H-Oh-Cah
800   799   1161  1     110.00   125.52   ; H-Oh-Cah
800   799   1206  1     110.00   125.52   ; H-Oh-Cah
1156  799   1161  1     98.20    KANGLE ; Cah-Oh-Cah
1156  799   1206  1     98.51    KANGLE ; Cah-Oh-Cah
1161  799   1206  1     98.51    KANGLE ; Cah-Oh-Cah
394   801   439   1     98.17    KANGLE ; Oh-Cah-Oh
394   801   444   1     98.14    KANGLE ; Oh-Cah-Oh
394   801   752   1     81.90    KANGLE ; Oh-Cah-Oh
394   801   757   1     81.90    KANGLE ; Oh-Cah-Oh
394   801   802   1     179.67   KANGLE ; Oh-Cah-Oh
439   801   444   1     98.09    KANGLE ; Oh-Cah-Oh
439   801   752   1     81.81    KANGLE ; Oh-Cah-Oh
439   801   757   1     179.74   KANGLE ; Oh-Cah-Oh
439   801   802   1     81.62    KANGLE ; Oh-Cah-Oh
444   801   752   1     179.90   KANGLE ; Oh-Cah-Oh
444   801   757   1     81.65    KANGLE ; Oh-Cah-Oh
444   801   802   1     81.65    KANGLE ; Oh-Cah-Oh
752   801   757   1     98.45    KANGLE ; Oh-Cah-Oh
752   801   802   1     98.32    KANGLE ; Oh-Cah-Oh
757   801   802   1     98.32    KANGLE ; Oh-Cah-Oh
801   802   803   1     110.00   125.52   ; Cah-Oh-H
801   802   846   1     98.51    KANGLE ; Cah-Oh-Cah
801   802   851   1     98.49    KANGLE ; Cah-Oh-Cah
803   802   846   1     110.00   125.52   ; H-Oh-Cah
803   802   851   1     110.00   125.52   ; H-Oh-Cah
846   802   851   1     98.36    KANGLE ; Cah-Oh-Cah
805   804   1161  1     110.00   125.52   ; H-Oh-Cah
805   804   1166  1     110.00   125.52   ; H-Oh-Cah
805   804   1211  1     110.00   125.52   ; H-Oh-Cah
1161  804   1166  1     98.36    KANGLE ; Cah-Oh-Cah
1161  804   1211  1     98.49    KANGLE ; Cah-Oh-Cah
1166  804   1211  1     98.51    KANGLE ; Cah-Oh-Cah
399   806   444   1     98.17    KANGLE ; Oh-Cah-Oh
399   806   449   1     98.17    KANGLE ; Oh-Cah-Oh
399   806   757   1     81.92    KANGLE ; Oh-Cah-Oh
399   806   762   1     81.90    KANGLE ; Oh-Cah-Oh
399   806   807   1     179.67   KANGLE ; Oh-Cah-Oh
444   806   449   1     97.93    KANGLE ; Oh-Cah-Oh
444   806   757   1     81.65    KANGLE ; Oh-Cah-Oh
444   806   762   1     179.74   KANGLE ; Oh-Cah-Oh
444   806   807   1     81.62    KANGLE ; Oh-Cah-Oh
449   806   757   1     179.58   KANGLE ; Oh-Cah-Oh
449   806   762   1     81.81    KANGLE ; Oh-Cah-Oh
449   806   807   1     81.62    KANGLE ; Oh-Cah-Oh
757   806   762   1     98.60    KANGLE ; Oh-Cah-Oh
757   806   807   1     98.29    KANGLE ; Oh-Cah-Oh
762   806   807   1     98.32    KANGLE ; Oh-Cah-Oh
806   807   808   1     110.00   125.52   ; Cah-Oh-H
806   807   811   1     98.50    KANGLE ; Cah-Oh-Cah
806   807   851   1     98.51    KANGLE ; Cah-Oh-Cah
808   807   811   1     110.00   125.52   ; H-Oh-Cah
808   807   851   1     110.00   125.52   ; H-Oh-Cah
811   807   851   1     98.28    KANGLE ; Cah-Oh-Cah
810   809   1126  1     110.00   125.52   ; H-Oh-Cah
810   809   1166  1     110.00   125.52   ; H-Oh-Cah
810   809   1171  1     110.00   125.52   ; H-Oh-Cah
1126  809   1166  1     98.28    KANGLE ; Cah-Oh-Cah
1126  809   1171  1     98.41    KANGLE ; Cah-Oh-Cah
1166  809   1171  1     98.61    KANGLE ; Cah-Oh-Cah
449   811   454   1     98.14    KANGLE ; Oh-Cah-Oh
449   811   494   1     97.94    KANGLE ; Oh-Cah-Oh
449   811   767   1     81.71    KANGLE ; Oh-Cah-Oh
449   811   807   1     81.54    KANGLE ; Oh-Cah-Oh
449   811   812   1     179.58   KANGLE ; Oh-Cah-Oh
454   811   494   1     98.25    KANGLE ; Oh-Cah-Oh
454   811   767   1     81.81    KANGLE ; Oh-Cah-Oh
454   811   807   1     179.65   KANGLE ; Oh-Cah-Oh
454   811   812   1     82.00    KANGLE ; Oh-Cah-Oh
494   811   767   1     179.65   KANGLE ; Oh-Cah-Oh
494   811   807   1     81.65    KANGLE ; Oh-Cah-Oh
494   811   812   1     81.65    KANGLE ; Oh-Cah-Oh
767   811   807   1     98.28    KANGLE ; Oh-Cah-Oh
767   811   812   1     98.70    KANGLE ; Oh-Cah-Oh
807   811   812   1     98.32    KANGLE ; Oh-Cah-Oh
811   812   813   1     110.00   125.52   ; Cah-Oh-H
811   812   856   1     98.50    KANGLE ; Cah-Oh-Cah
811   812   861   1     98.10    KANGLE ; Cah-Oh-Cah
813   812   856   1     110.00   125.52   ; H-Oh-Cah
813   812   861   1     110.00   125.52   ; H-Oh-Cah
856   812   861   1     98.60    KANGLE ; Cah-Oh-Cah
815   814   1171  1     110.00   125.52   ; H-Oh-Cah
815   814   1176  1     110.00   125.52   ; H-Oh-Cah
815   814   1221  1     110.00   125.52   ; H-Oh-Cah
1171  814   1176  1     98.45    KANGLE ; Cah-Oh-Cah
1171  814   1221  1     98.32    KANGLE ; Cah-Oh-Cah
1176  814   1221  1     98.32    KANGLE ; Cah-Oh-Cah
409   816   454   1     98.04    KANGLE ; Oh-Cah-Oh
409   816   459   1     98.04    KANGLE ; Oh-Cah-Oh
409   816   767   1     81.62    KANGLE ; Oh-Cah-Oh
409   816   772   1     81.62    KANGLE ; Oh-Cah-Oh
409   816   817   1     179.79   KANGLE ; Oh-Cah-Oh
454   816   459   1     98.17    KANGLE ; Oh-Cah-Oh
454   816   767   1     81.81    KANGLE ; Oh-Cah-Oh
454   816   772   1     179.66   KANGLE ; Oh-Cah-Oh
454   816   817   1     81.82    KANGLE ; Oh-Cah-Oh
459   816   767   1     179.66   KANGLE ; Oh-Cah-Oh
459   816   772   1     81.81    KANGLE ; Oh-Cah-Oh
459   816   817   1     81.82    KANGLE ; Oh-Cah-Oh
767   816   772   1     98.20    KANGLE ; Oh-Cah-Oh
767   816   817   1     98.51    KANGLE ; Oh-Cah-Oh
772   816   817   1     98.51    KANGLE ; Oh-Cah-Oh
816   817   818   1     110.00   125.52   ; Cah-Oh-H
816   817   861   1     98.32    KANGLE ; Cah-Oh-Cah
816   817   866   1     98.32    KANGLE ; Cah-Oh-Cah
818   817   861   1     110.00   125.52   ; H-Oh-Cah
818   817   866   1     110.00   125.52   ; H-Oh-Cah
861   817   866   1     98.45    KANGLE ; Cah-Oh-Cah
820   819   1176  1     110.00   125.52   ; H-Oh-Cah
820   819   1181  1     110.00   125.52   ; H-Oh-Cah
820   819   1226  1     110.00   125.52   ; H-Oh-Cah
1176  819   1181  1     98.60    KANGLE ; Cah-Oh-Cah
1176  819   1226  1     98.32    KANGLE ; Cah-Oh-Cah
1181  819   1226  1     98.29    KANGLE ; Cah-Oh-Cah
414   821   459   1     98.02    KANGLE ; Oh-Cah-Oh
414   821   464   1     98.04    KANGLE ; Oh-Cah-Oh
414   821   772   1     81.65    KANGLE ; Oh-Cah-Oh
414   821   777   1     81.62    KANGLE ; Oh-Cah-Oh
414   821   822   1     179.68   KANGLE ; Oh-Cah-Oh
459   821   464   1     98.33    KANGLE ; Oh-Cah-Oh
459   821   772   1     81.50    KANGLE ; Oh-Cah-Oh
459   821   777   1     179.63   KANGLE ; Oh-Cah-Oh
459   821   822   1     81.66    KANGLE ; Oh-Cah-Oh
464   821   772   1     179.62   KANGLE ; Oh-Cah-Oh
464   821   777   1     81.81    KANGLE ; Oh-Cah-Oh
464   821   822   1     82.00    KANGLE ; Oh-Cah-Oh
772   821   777   1     98.36    KANGLE ; Oh-Cah-Oh
772   821   822   1     98.30    KANGLE ; Oh-Cah-Oh
777   821   822   1     98.70    KANGLE ; Oh-Cah-Oh
821   822   823   1     110.00   125.52   ; Cah-Oh-H
821   822   866   1     98.50    KANGLE ; Cah-Oh-Cah
821   822   871   1     98.10    KANGLE ; Cah-Oh-Cah
823   822   866   1     110.00   125.52   ; H-Oh-Cah
823   822   871   1     110.00   125.52   ; H-Oh-Cah
866   822   871   1     98.60    KANGLE ; Cah-Oh-Cah
825   824   1181  1     110.00   125.52   ; H-Oh-Cah
825   824   1186  1     110.00   125.52   ; H-Oh-Cah
825   824   1231  1     110.00   125.52   ; H-Oh-Cah
1181  824   1186  1     98.45    KANGLE ; Cah-Oh-Cah
1181  824   1231  1     98.32    KANGLE ; Cah-Oh-Cah
1186  824   1231  1     98.32    KANGLE ; Cah-Oh-Cah
419   826   464   1     98.04    KANGLE ; Oh-Cah-Oh
419   826   469   1     98.04    KANGLE ; Oh-Cah-Oh
419   826   777   1     81.62    KANGLE ; Oh-Cah-Oh
419   826   782   1     81.62    KANGLE ; Oh-Cah-Oh
419   826   827   1     179.79   KANGLE ; Oh-Cah-Oh
464   826   469   1     98.17    KANGLE ; Oh-Cah-Oh
464   826   777   1     81.81    KANGLE ; Oh-Cah-Oh
464   826   782   1     179.66   KANGLE ; Oh-Cah-Oh
464   826   827   1     81.82    KANGLE ; Oh-Cah-Oh
469   826   777   1     179.66   KANGLE ; Oh-Cah-Oh
469   826   782   1     81.81    KANGLE ; Oh-Cah-Oh
469   826   827   1     81.82    KANGLE ; Oh-Cah-Oh
777   826   782   1     98.20    KANGLE ; Oh-Cah-Oh
777   826   827   1     98.51    KANGLE ; Oh-Cah-Oh
782   826   827   1     98.51    KANGLE ; Oh-Cah-Oh
826   827   828   1     110.00   125.52   ; Cah-Oh-H
826   827   871   1     98.32    KANGLE ; Cah-Oh-Cah
826   827   876   1     98.32    KANGLE ; Cah-Oh-Cah
828   827   871   1     110.00   125.52   ; H-Oh-Cah
828   827   876   1     110.00   125.52   ; H-Oh-Cah
871   827   876   1     98.45    KANGLE ; Cah-Oh-Cah
830   829   1186  1     110.00   125.52   ; H-Oh-Cah
830   829   1191  1     110.00   125.52   ; H-Oh-Cah
830   829   1236  1     110.00   125.52   ; H-Oh-Cah
1186  829   1191  1     98.60    KANGLE ; Cah-Oh-Cah
1186  829   1236  1     98.32    KANGLE ; Cah-Oh-Cah
1191  829   1236  1     98.29    KANGLE ; Cah-Oh-Cah
424   831   469   1     98.02    KANGLE ; Oh-Cah-Oh
424   831   474   1     98.04    KANGLE ; Oh-Cah-Oh
424   831   782   1     81.65    KANGLE ; Oh-Cah-Oh
424   831   787   1     81.62    KANGLE ; Oh-Cah-Oh
424   831   832   1     179.68   KANGLE ; Oh-Cah-Oh
469   831   474   1     98.33    KANGLE ; Oh-Cah-Oh
469   831   782   1     81.50    KANGLE ; Oh-Cah-Oh
469   831   787   1     179.63   KANGLE ; Oh-Cah-Oh
469   831   832   1     81.66    KANGLE ; Oh-Cah-Oh
474   831   782   1     179.62   KANGLE ; Oh-Cah-Oh
474   831   787   1     81.81    KANGLE ; Oh-Cah-Oh
474   831   832   1     82.00    KANGLE ; Oh-Cah-Oh
782   831   787   1     98.36    KANGLE ; Oh-Cah-Oh
782   831   832   1     98.30    KANGLE ; Oh-Cah-Oh
787   831   832   1     98.70    KANGLE ; Oh-Cah-Oh
831   832   833   1     110.00   125.52   ; Cah-Oh-H
831   832   876   1     98.50    KANGLE ; Cah-Oh-Cah
831   832   881   1     98.10    KANGLE ; Cah-Oh-Cah
833   832   876   1     110.00   125.52   ; H-Oh-Cah
833   832   881   1     110.00   125.52   ; H-Oh-Cah
876   832   881   1     98.60    KANGLE ; Cah-Oh-Cah
835   834   1191  1     110.00   125.52   ; H-Oh-Cah
835   834   1196  1     110.00   125.52   ; H-Oh-Cah
835   834   1241  1     110.00   125.52   ; H-Oh-Cah
1191  834   1196  1     98.45    KANGLE ; Cah-Oh-Cah
1191  834   1241  1     98.32    KANGLE ; Cah-Oh-Cah
1196  834   1241  1     98.32    KANGLE ; Cah-Oh-Cah
429   836   474   1     98.04    KANGLE ; Oh-Cah-Oh
429   836   479   1     98.04    KANGLE ; Oh-Cah-Oh
429   836   787   1     81.62    KANGLE ; Oh-Cah-Oh
429   836   792   1     81.62    KANGLE ; Oh-Cah-Oh
429   836   837   1     179.79   KANGLE ; Oh-Cah-Oh
474   836   479   1     98.17    KANGLE ; Oh-Cah-Oh
474   836   787   1     81.81    KANGLE ; Oh-Cah-Oh
474   836   792   1     179.66   KANGLE ; Oh-Cah-Oh
474   836   837   1     81.82    KANGLE ; Oh-Cah-Oh
479   836   787   1     179.66   KANGLE ; Oh-Cah-Oh
479   836   792   1     81.81    KANGLE ; Oh-Cah-Oh
479   836   837   1     81.82    KANGLE ; Oh-Cah-Oh
787   836   792   1     98.20    KANGLE ; Oh-Cah-Oh
787   836   837   1     98.51    KANGLE ; Oh-Cah-Oh
792   836   837   1     98.51    KANGLE ; Oh-Cah-Oh
836   837   838   1     110.00   125.52   ; Cah-Oh-H
836   837   881   1     98.32    KANGLE ; Cah-Oh-Cah
836   837   886   1     98.32    KANGLE ; Cah-Oh-Cah
838   837   881   1     110.00   125.52   ; H-Oh-Cah
838   837   886   1     110.00   125.52   ; H-Oh-Cah
881   837   886   1     98.45    KANGLE ; Cah-Oh-Cah
840   839   1196  1     110.00   125.52   ; H-Oh-Cah
840   839   1201  1     110.00   125.52   ; H-Oh-Cah
840   839   1246  1     110.00   125.52   ; H-Oh-Cah
1196  839   1201  1     98.45    KANGLE ; Cah-Oh-Cah
1196  839   1246  1     98.32    KANGLE ; Cah-Oh-Cah
1201  839   1246  1     98.32    KANGLE ; Cah-Oh-Cah
434   841   479   1     98.23    KANGLE ; Oh-Cah-Oh
434   841   484   1     97.83    KANGLE ; Oh-Cah-Oh
434   841   792   1     81.81    KANGLE ; Oh-Cah-Oh
434   841   797   1     81.46    KANGLE ; Oh-Cah-Oh
434   841   842   1     179.68   KANGLE ; Oh-Cah-Oh
479   841   484   1     98.33    KANGLE ; Oh-Cah-Oh
479   841   792   1     81.81    KANGLE ; Oh-Cah-Oh
479   841   797   1     179.62   KANGLE ; Oh-Cah-Oh
479   841   842   1     81.82    KANGLE ; Oh-Cah-Oh
484   841   792   1     179.63   KANGLE ; Oh-Cah-Oh
484   841   797   1     81.50    KANGLE ; Oh-Cah-Oh
484   841   842   1     81.85    KANGLE ; Oh-Cah-Oh
792   841   797   1     98.36    KANGLE ; Oh-Cah-Oh
792   841   842   1     98.51    KANGLE ; Oh-Cah-Oh
797   841   842   1     98.49    KANGLE ; Oh-Cah-Oh
841   842   843   1     110.00   125.52   ; Cah-Oh-H
841   842   886   1     98.32    KANGLE ; Cah-Oh-Cah
841   842   891   1     98.29    KANGLE ; Cah-Oh-Cah
843   842   886   1     110.00   125.52   ; H-Oh-Cah
843   842   891   1     110.00   125.52   ; H-Oh-Cah
886   842   891   1     98.60    KANGLE ; Cah-Oh-Cah
845   844   1201  1     110.00   125.52   ; H-Oh-Cah
845   844   1206  1     110.00   125.52   ; H-Oh-Cah
845   844   1251  1     110.00   125.52   ; H-Oh-Cah
1201  844   1206  1     98.60    KANGLE ; Cah-Oh-Cah
1201  844   1251  1     98.29    KANGLE ; Cah-Oh-Cah
1206  844   1251  1     98.32    KANGLE ; Cah-Oh-Cah
439   846   484   1     98.04    KANGLE ; Oh-Cah-Oh
439   846   489   1     98.04    KANGLE ; Oh-Cah-Oh
439   846   797   1     81.62    KANGLE ; Oh-Cah-Oh
439   846   802   1     81.62    KANGLE ; Oh-Cah-Oh
439   846   847   1     179.79   KANGLE ; Oh-Cah-Oh
484   846   489   1     98.17    KANGLE ; Oh-Cah-Oh
484   846   797   1     81.81    KANGLE ; Oh-Cah-Oh
484   846   802   1     179.66   KANGLE ; Oh-Cah-Oh
484   846   847   1     81.82    KANGLE ; Oh-Cah-Oh
489   846   797   1     179.66   KANGLE ; Oh-Cah-Oh
489   846   802   1     81.81    KANGLE ; Oh-Cah-Oh
489   846   847   1     81.82    KANGLE ; Oh-Cah-Oh
797   846   802   1     98.20    KANGLE ; Oh-Cah-Oh
797   846   847   1     98.51    KANGLE ; Oh-Cah-Oh
802   846   847   1     98.51    KANGLE ; Oh-Cah-Oh
846   847   848   1     110.00   125.52   ; Cah-Oh-H
846   847   891   1     98.32    KANGLE ; Cah-Oh-Cah
846   847   896   1     98.32    KANGLE ; Cah-Oh-Cah
848   847   891   1     110.00   125.52   ; H-Oh-Cah
848   847   896   1     110.00   125.52   ; H-Oh-Cah
891   847   896   1     98.45    KANGLE ; Cah-Oh-Cah
850   849   1206  1     110.00   125.52   ; H-Oh-Cah
850   849   1211  1     110.00   125.52   ; H-Oh-Cah
850   849   1256  1     110.00   125.52   ; H-Oh-Cah
1206  849   1211  1     98.60    KANGLE ; Cah-Oh-Cah
1206  849   1256  1     98.32    KANGLE ; Cah-Oh-Cah
1211  849   1256  1     98.29    KANGLE ; Cah-Oh-Cah
444   851   489   1     98.02    KANGLE ; Oh-Cah-Oh
444   851   494   1     98.04    KANGLE ; Oh-Cah-Oh
444   851   802   1     81.65    KANGLE ; Oh-Cah-Oh
444   851   807   1     81.62    KANGLE ; Oh-Cah-Oh
444   851   852   1     179.68   KANGLE ; Oh-Cah-Oh
489   851   494   1     98.33    KANGLE ; Oh-Cah-Oh
489   851   802   1     81.50    KANGLE ; Oh-Cah-Oh
489   851   807   1     179.63   KANGLE ; Oh-Cah-Oh
489   851   852   1     81.66    KANGLE ; Oh-Cah-Oh
494   851   802   1     179.62   KANGLE ; Oh-Cah-Oh
494   851   807   1     81.81    KANGLE ; Oh-Cah-Oh
494   851   852   1     82.00    KANGLE ; Oh-Cah-Oh
802   851   807   1     98.36    KANGLE ; Oh-Cah-Oh
802   851   852   1     98.30    KANGLE ; Oh-Cah-Oh
807   851   852   1     98.70    KANGLE ; Oh-Cah-Oh
851   852   853   1     110.00   125.52   ; Cah-Oh-H
851   852   856   1     98.12    KANGLE ; Cah-Oh-Cah
851   852   896   1     98.50    KANGLE ; Cah-Oh-Cah
853   852   856   1     110.00   125.52   ; H-Oh-Cah
853   852   896   1     110.00   125.52   ; H-Oh-Cah
856   852   896   1     98.53    KANGLE ; Cah-Oh-Cah
855   854   1171  1     110.00   125.52   ; H-Oh-Cah
855   854   1211  1     110.00   125.52   ; H-Oh-Cah
855   854   1216  1     110.00   125.52   ; H-Oh-Cah
1171  854   1211  1     98.53    KANGLE ; Cah-Oh-Cah
1171  854   1216  1     98.40    KANGLE ; Cah-Oh-Cah
1211  854   1216  1     98.22    KANGLE ; Cah-Oh-Cah
494   856   499   1     98.12    KANGLE ; Oh-Cah-Oh
494   856   539   1     98.35    KANGLE ; Oh-Cah-Oh
494   856   812   1     81.73    KANGLE ; Oh-Cah-Oh
494   856   852   1     81.93    KANGLE ; Oh-Cah-Oh
494   856   857   1     179.76   KANGLE ; Oh-Cah-Oh
499   856   539   1     98.01    KANGLE ; Oh-Cah-Oh
499   856   812   1     81.65    KANGLE ; Oh-Cah-Oh
499   856   852   1     179.82   KANGLE ; Oh-Cah-Oh
499   856   857   1     81.65    KANGLE ; Oh-Cah-Oh
539   856   812   1     179.66   KANGLE ; Oh-Cah-Oh
539   856   852   1     81.81    KANGLE ; Oh-Cah-Oh
539   856   857   1     81.61    KANGLE ; Oh-Cah-Oh
812   856   852   1     98.53    KANGLE ; Oh-Cah-Oh
812   856   857   1     98.32    KANGLE ; Oh-Cah-Oh
852   856   857   1     98.30    KANGLE ; Oh-Cah-Oh
856   857   858   1     110.00   125.52   ; Cah-Oh-H
856   857   901   1     98.51    KANGLE ; Cah-Oh-Cah
856   857   906   1     98.49    KANGLE ; Cah-Oh-Cah
858   857   901   1     110.00   125.52   ; H-Oh-Cah
858   857   906   1     110.00   125.52   ; H-Oh-Cah
901   857   906   1     98.36    KANGLE ; Cah-Oh-Cah
860   859   1216  1     110.00   125.52   ; H-Oh-Cah
860   859   1221  1     110.00   125.52   ; H-Oh-Cah
860   859   1266  1     110.00   125.52   ; H-Oh-Cah
1216  859   1221  1     98.36    KANGLE ; Cah-Oh-Cah
1216  859   1266  1     98.49    KANGLE ; Cah-Oh-Cah
1221  859   1266  1     98.51    KANGLE ; Cah-Oh-Cah
454   861   499   1     98.24    KANGLE ; Oh-Cah-Oh
454   861   504   1     98.24    KANGLE ; Oh-Cah-Oh
454   861   812   1     81.85    KANGLE ; Oh-Cah-Oh
454   861   817   1     81.82    KANGLE ; Oh-Cah-Oh
454   861   862   1     179.79   KANGLE ; Oh-Cah-Oh
499   861   504   1     97.93    KANGLE ; Oh-Cah-Oh
499   861   812   1     81.65    KANGLE ; Oh-Cah-Oh
499   861   817   1     179.74   KANGLE ; Oh-Cah-Oh
499   861   862   1     81.62    KANGLE ; Oh-Cah-Oh
504   861   812   1     179.58   KANGLE ; Oh-Cah-Oh
504   861   817   1     81.81    KANGLE ; Oh-Cah-Oh
504   861   862   1     81.62    KANGLE ; Oh-Cah-Oh
812   861   817   1     98.60    KANGLE ; Oh-Cah-Oh
812   861   862   1     98.29    KANGLE ; Oh-Cah-Oh
817   861   862   1     98.32    KANGLE ; Oh-Cah-Oh
861   862   863   1     110.00   125.52   ; Cah-Oh-H
861   862   906   1     98.51    KANGLE ; Cah-Oh-Cah
861   862   911   1     98.51    KANGLE ; Cah-Oh-Cah
863   862   906   1     110.00   125.52   ; H-Oh-Cah
863   862   911   1     110.00   125.52   ; H-Oh-Cah
906   862   911   1     98.20    KANGLE ; Cah-Oh-Cah
865   864   1221  1     110.00   125.52   ; H-Oh-Cah
865   864   1226  1     110.00   125.52   ; H-Oh-Cah
865   864   1271  1     110.00   125.52   ; H-Oh-Cah
1221  864   1226  1     98.20    KANGLE ; Cah-Oh-Cah
1221  864   1271  1     98.51    KANGLE ; Cah-Oh-Cah
1226  864   1271  1     98.51    KANGLE ; Cah-Oh-Cah
459   866   504   1     98.24    KANGLE ; Oh-Cah-Oh
459   866   509   1     98.22    KANGLE ; Oh-Cah-Oh
459   866   817   1     81.82    KANGLE ; Oh-Cah-Oh
459   866   822   1     81.82    KANGLE ; Oh-Cah-Oh
459   866   867   1     179.79   KANGLE ; Oh-Cah-Oh
504   866   509   1     98.09    KANGLE ; Oh-Cah-Oh
504   866   817   1     81.81    KANGLE ; Oh-Cah-Oh
504   866   822   1     179.74   KANGLE ; Oh-Cah-Oh
504   866   867   1     81.62    KANGLE ; Oh-Cah-Oh
509   866   817   1     179.90   KANGLE ; Oh-Cah-Oh
509   866   822   1     81.65    KANGLE ; Oh-Cah-Oh
509   866   867   1     81.65    KANGLE ; Oh-Cah-Oh
817   866   822   1     98.45    KANGLE ; Oh-Cah-Oh
817   866   867   1     98.32    KANGLE ; Oh-Cah-Oh
822   866   867   1     98.32    KANGLE ; Oh-Cah-Oh
866   867   868   1     110.00   125.52   ; Cah-Oh-H
866   867   911   1     98.51    KANGLE ; Cah-Oh-Cah
866   867   916   1     98.49    KANGLE ; Cah-Oh-Cah
868   867   911   1     110.00   125.52   ; H-Oh-Cah
868   867   916   1     110.00   125.52   ; H-Oh-Cah
911   867   916   1     98.36    KANGLE ; Cah-Oh-Cah
870   869   1226  1     110.00   125.52   ; H-Oh-Cah
870   869   1231  1     110.00   125.52   ; H-Oh-Cah
870   869   1276  1     110.00   125.52   ; H-Oh-Cah
1226  869   1231  1     98.36    KANGLE ; Cah-Oh-Cah
1226  869   1276  1     98.49    KANGLE ; Cah-Oh-Cah
1231  869   1276  1     98.51    KANGLE ; Cah-Oh-Cah
464   871   509   1     98.24    KANGLE ; Oh-Cah-Oh
464   871   514   1     98.24    KANGLE ; Oh-Cah-Oh
464   871   822   1     81.85    KANGLE ; Oh-Cah-Oh
464   871   827   1     81.82    KANGLE ; Oh-Cah-Oh
464   871   872   1     179.79   KANGLE ; Oh-Cah-Oh
509   871   514   1     97.93    KANGLE ; Oh-Cah-Oh
509   871   822   1     81.65    KANGLE ; Oh-Cah-Oh
509   871   827   1     179.74   KANGLE ; Oh-Cah-Oh
509   871   872   1     81.62    KANGLE ; Oh-Cah-Oh
514   871   822   1     179.58   KANGLE ; Oh-Cah-Oh
514   871   827   1     81.81    KANGLE ; Oh-Cah-Oh
514   871   872   1     81.62    KANGLE ; Oh-Cah-Oh
822   871   827   1     98.60    KANGLE ; Oh-Cah-Oh
822   871   872   1     98.29    KANGLE ; Oh-Cah-Oh
827   871   872   1     98.32    KANGLE ; Oh-Cah-Oh
871   872   873   1     110.00   125.52   ; Cah-Oh-H
871   872   916   1     98.51    KANGLE ; Cah-Oh-Cah
871   872   921   1     98.51    KANGLE ; Cah-Oh-Cah
873   872   916   1     110.00   125.52   ; H-Oh-Cah
873   872   921   1     110.00   125.52   ; H-Oh-Cah
916   872   921   1     98.20    KANGLE ; Cah-Oh-Cah
875   874   1231  1     110.00   125.52   ; H-Oh-Cah
875   874   1236  1     110.00   125.52   ; H-Oh-Cah
875   874   1281  1     110.00   125.52   ; H-Oh-Cah
1231  874   1236  1     98.20    KANGLE ; Cah-Oh-Cah
1231  874   1281  1     98.51    KANGLE ; Cah-Oh-Cah
1236  874   1281  1     98.51    KANGLE ; Cah-Oh-Cah
469   876   514   1     98.24    KANGLE ; Oh-Cah-Oh
469   876   519   1     98.22    KANGLE ; Oh-Cah-Oh
469   876   827   1     81.82    KANGLE ; Oh-Cah-Oh
469   876   832   1     81.82    KANGLE ; Oh-Cah-Oh
469   876   877   1     179.79   KANGLE ; Oh-Cah-Oh
514   876   519   1     98.09    KANGLE ; Oh-Cah-Oh
514   876   827   1     81.81    KANGLE ; Oh-Cah-Oh
514   876   832   1     179.74   KANGLE ; Oh-Cah-Oh
514   876   877   1     81.62    KANGLE ; Oh-Cah-Oh
519   876   827   1     179.90   KANGLE ; Oh-Cah-Oh
519   876   832   1     81.65    KANGLE ; Oh-Cah-Oh
519   876   877   1     81.65    KANGLE ; Oh-Cah-Oh
827   876   832   1     98.45    KANGLE ; Oh-Cah-Oh
827   876   877   1     98.32    KANGLE ; Oh-Cah-Oh
832   876   877   1     98.32    KANGLE ; Oh-Cah-Oh
876   877   878   1     110.00   125.52   ; Cah-Oh-H
876   877   921   1     98.51    KANGLE ; Cah-Oh-Cah
876   877   926   1     98.49    KANGLE ; Cah-Oh-Cah
878   877   921   1     110.00   125.52   ; H-Oh-Cah
878   877   926   1     110.00   125.52   ; H-Oh-Cah
921   877   926   1     98.36    KANGLE ; Cah-Oh-Cah
880   879   1236  1     110.00   125.52   ; H-Oh-Cah
880   879   1241  1     110.00   125.52   ; H-Oh-Cah
880   879   1286  1     110.00   125.52   ; H-Oh-Cah
1236  879   1241  1     98.36    KANGLE ; Cah-Oh-Cah
1236  879   1286  1     98.49    KANGLE ; Cah-Oh-Cah
1241  879   1286  1     98.51    KANGLE ; Cah-Oh-Cah
474   881   519   1     98.24    KANGLE ; Oh-Cah-Oh
474   881   524   1     98.24    KANGLE ; Oh-Cah-Oh
474   881   832   1     81.85    KANGLE ; Oh-Cah-Oh
474   881   837   1     81.82    KANGLE ; Oh-Cah-Oh
474   881   882   1     179.79   KANGLE ; Oh-Cah-Oh
519   881   524   1     97.93    KANGLE ; Oh-Cah-Oh
519   881   832   1     81.65    KANGLE ; Oh-Cah-Oh
519   881   837   1     179.74   KANGLE ; Oh-Cah-Oh
519   881   882   1     81.62    KANGLE ; Oh-Cah-Oh
524   881   832   1     179.58   KANGLE ; Oh-Cah-Oh
524   881   837   1     81.81    KANGLE ; Oh-Cah-Oh
524   881   882   1     81.62    KANGLE ; Oh-Cah-Oh
832   881   837   1     98.60    KANGLE ; Oh-Cah-Oh
832   881   882   1     98.29    KANGLE ; Oh-Cah-Oh
837   881   882   1     98.32    KANGLE ; Oh-Cah-Oh
881   882   883   1     110.00   125.52   ; Cah-Oh-H
881   882   926   1     98.51    KANGLE ; Cah-Oh-Cah
881   882   931   1     98.51    KANGLE ; Cah-Oh-Cah
883   882   926   1     110.00   125.52   ; H-Oh-Cah
883   882   931   1     110.00   125.52   ; H-Oh-Cah
926   882   931   1     98.20    KANGLE ; Cah-Oh-Cah
885   884   1241  1     110.00   125.52   ; H-Oh-Cah
885   884   1246  1     110.00   125.52   ; H-Oh-Cah
885   884   1291  1     110.00   125.52   ; H-Oh-Cah
1241  884   1246  1     98.20    KANGLE ; Cah-Oh-Cah
1241  884   1291  1     98.51    KANGLE ; Cah-Oh-Cah
1246  884   1291  1     98.51    KANGLE ; Cah-Oh-Cah
479   886   524   1     98.24    KANGLE ; Oh-Cah-Oh
479   886   529   1     98.22    KANGLE ; Oh-Cah-Oh
479   886   837   1     81.82    KANGLE ; Oh-Cah-Oh
479   886   842   1     81.82    KANGLE ; Oh-Cah-Oh
479   886   887   1     179.79   KANGLE ; Oh-Cah-Oh
524   886   529   1     98.09    KANGLE ; Oh-Cah-Oh
524   886   837   1     81.81    KANGLE ; Oh-Cah-Oh
524   886   842   1     179.74   KANGLE ; Oh-Cah-Oh
524   886   887   1     81.62    KANGLE ; Oh-Cah-Oh
529   886   837   1     179.90   KANGLE ; Oh-Cah-Oh
529   886   842   1     81.65    KANGLE ; Oh-Cah-Oh
529   886   887   1     81.65    KANGLE ; Oh-Cah-Oh
837   886   842   1     98.45    KANGLE ; Oh-Cah-Oh
837   886   887   1     98.32    KANGLE ; Oh-Cah-Oh
842   886   887   1     98.32    KANGLE ; Oh-Cah-Oh
886   887   888   1     110.00   125.52   ; Cah-Oh-H
886   887   931   1     98.51    KANGLE ; Cah-Oh-Cah
886   887   936   1     98.49    KANGLE ; Cah-Oh-Cah
888   887   931   1     110.00   125.52   ; H-Oh-Cah
888   887   936   1     110.00   125.52   ; H-Oh-Cah
931   887   936   1     98.36    KANGLE ; Cah-Oh-Cah
890   889   1246  1     110.00   125.52   ; H-Oh-Cah
890   889   1251  1     110.00   125.52   ; H-Oh-Cah
890   889   1296  1     110.00   125.52   ; H-Oh-Cah
1246  889   1251  1     98.36    KANGLE ; Cah-Oh-Cah
1246  889   1296  1     98.49    KANGLE ; Cah-Oh-Cah
1251  889   1296  1     98.51    KANGLE ; Cah-Oh-Cah
484   891   529   1     98.24    KANGLE ; Oh-Cah-Oh
484   891   534   1     98.24    KANGLE ; Oh-Cah-Oh
484   891   842   1     81.85    KANGLE ; Oh-Cah-Oh
484   891   847   1     81.82    KANGLE ; Oh-Cah-Oh
484   891   892   1     179.79   KANGLE ; Oh-Cah-Oh
529   891   534   1     97.93    KANGLE ; Oh-Cah-Oh
529   891   842   1     81.65    KANGLE ; Oh-Cah-Oh
529   891   847   1     179.74   KANGLE ; Oh-Cah-Oh
529   891   892   1     81.62    KANGLE ; Oh-Cah-Oh
534   891   842   1     179.58   KANGLE ; Oh-Cah-Oh
534   891   847   1     81.81    KANGLE ; Oh-Cah-Oh
534   891   892   1     81.62    KANGLE ; Oh-Cah-Oh
842   891   847   1     98.60    KANGLE ; Oh-Cah-Oh
842   891   892   1     98.29    KANGLE ; Oh-Cah-Oh
847   891   892   1     98.32    KANGLE ; Oh-Cah-Oh
891   892   893   1     110.00   125.52   ; Cah-Oh-H
891   892   936   1     98.51    KANGLE ; Cah-Oh-Cah
891   892   941   1     98.51    KANGLE ; Cah-Oh-Cah
893   892   936   1     110.00   125.52   ; H-Oh-Cah
893   892   941   1     110.00   125.52   ; H-Oh-Cah
936   892   941   1     98.20    KANGLE ; Cah-Oh-Cah
895   894   1251  1     110.00   125.52   ; H-Oh-Cah
895   894   1256  1     110.00   125.52   ; H-Oh-Cah
895   894   1301  1     110.00   125.52   ; H-Oh-Cah
1251  894   1256  1     98.20    KANGLE ; Cah-Oh-Cah
1251  894   1301  1     98.51    KANGLE ; Cah-Oh-Cah
1256  894   1301  1     98.51    KANGLE ; Cah-Oh-Cah
489   896   534   1     98.24    KANGLE ; Oh-Cah-Oh
489   896   539   1     98.22    KANGLE ; Oh-Cah-Oh
489   896   847   1     81.82    KANGLE ; Oh-Cah-Oh
489   896   852   1     81.82    KANGLE ; Oh-Cah-Oh
489   896   897   1     179.79   KANGLE ; Oh-Cah-Oh
534   896   539   1     98.09    KANGLE ; Oh-Cah-Oh
534   896   847   1     81.81    KANGLE ; Oh-Cah-Oh
534   896   852   1     179.74   KANGLE ; Oh-Cah-Oh
534   896   897   1     81.62    KANGLE ; Oh-Cah-Oh
539   896   847   1     179.90   KANGLE ; Oh-Cah-Oh
539   896   852   1     81.65    KANGLE ; Oh-Cah-Oh
539   896   897   1     81.65    KANGLE ; Oh-Cah-Oh
847   896   852   1     98.45    KANGLE ; Oh-Cah-Oh
847   896   897   1     98.32    KANGLE ; Oh-Cah-Oh
852   896   897   1     98.32    KANGLE ; Oh-Cah-Oh
896   897   898   1     110.00   125.52   ; Cah-Oh-H
896   897   901   1     98.50    KANGLE ; Cah-Oh-Cah
896   897   941   1     98.51    KANGLE ; Cah-Oh-Cah
898   897   901   1     110.00   125.52   ; H-Oh-Cah
898   897   941   1     110.00   125.52   ; H-Oh-Cah
901   897   941   1     98.28    KANGLE ; Cah-Oh-Cah
900   899   1216  1     110.00   125.52   ; H-Oh-Cah
900   899   1256  1     110.00   125.52   ; H-Oh-Cah
900   899   1261  1     110.00   125.52   ; H-Oh-Cah
1216  899   1256  1     98.28    KANGLE ; Cah-Oh-Cah
1216  899   1261  1     98.62    KANGLE ; Cah-Oh-Cah
1256  899   1261  1     98.39    KANGLE ; Cah-Oh-Cah
539   901   544   1     97.95    KANGLE ; Oh-Cah-Oh
539   901   584   1     98.12    KANGLE ; Oh-Cah-Oh
539   901   857   1     81.53    KANGLE ; Oh-Cah-Oh
539   901   897   1     81.73    KANGLE ; Oh-Cah-Oh
539   901   902   1     179.76   KANGLE ; Oh-Cah-Oh
544   901   584   1     98.25    KANGLE ; Oh-Cah-Oh
544   901   857   1     81.81    KANGLE ; Oh-Cah-Oh
544   901   897   1     179.65   KANGLE ; Oh-Cah-Oh
544   901   902   1     81.82    KANGLE ; Oh-Cah-Oh
584   901   857   1     179.65   KANGLE ; Oh-Cah-Oh
584   901   897   1     81.65    KANGLE ; Oh-Cah-Oh
584   901   902   1     81.83    KANGLE ; Oh-Cah-Oh
857   901   897   1     98.28    KANGLE ; Oh-Cah-Oh
857   901   902   1     98.51    KANGLE ; Oh-Cah-Oh
897   901   902   1     98.50    KANGLE ; Oh-Cah-Oh
901   902   903   1     110.00   125.52   ; Cah-Oh-H
901   902   946   1     98.32    KANGLE ; Cah-Oh-Cah
901   902   951   1     98.32    KANGLE ; Cah-Oh-Cah
903   902   946   1     110.00   125.52   ; H-Oh-Cah
903   902   951   1     110.00   125.52   ; H-Oh-Cah
946   902   951   1     98.45    KANGLE ; Cah-Oh-Cah
905   904   1261  1     110.00   125.52   ; H-Oh-Cah
905   904   1266  1     110.00   125.52   ; H-Oh-Cah
905   904   1311  1     110.00   125.52   ; H-Oh-Cah
1261  904   1266  1     98.60    KANGLE ; Cah-Oh-Cah
1261  904   1311  1     98.32    KANGLE ; Cah-Oh-Cah
1266  904   1311  1     98.29    KANGLE ; Cah-Oh-Cah
499   906   544   1     98.02    KANGLE ; Oh-Cah-Oh
499   906   549   1     98.04    KANGLE ; Oh-Cah-Oh
499   906   857   1     81.65    KANGLE ; Oh-Cah-Oh
499   906   862   1     81.62    KANGLE ; Oh-Cah-Oh
499   906   907   1     179.68   KANGLE ; Oh-Cah-Oh
544   906   549   1     98.33    KANGLE ; Oh-Cah-Oh
544   906   857   1     81.50    KANGLE ; Oh-Cah-Oh
544   906   862   1     179.63   KANGLE ; Oh-Cah-Oh
544   906   907   1     81.66    KANGLE ; Oh-Cah-Oh
549   906   857   1     179.62   KANGLE ; Oh-Cah-Oh
549   906   862   1     81.81    KANGLE ; Oh-Cah-Oh
549   906   907   1     82.00    KANGLE ; Oh-Cah-Oh
857   906   862   1     98.36    KANGLE ; Oh-Cah-Oh
857   906   907   1     98.30    KANGLE ; Oh-Cah-Oh
862   906   907   1     98.70    KANGLE ; Oh-Cah-Oh
906   907   908   1     110.00   125.52   ; Cah-Oh-H
906   907   951   1     98.50    KANGLE ; Cah-Oh-Cah
906   907   956   1     98.10    KANGLE ; Cah-Oh-Cah
908   907   951   1     110.00   125.52   ; H-Oh-Cah
908   907   956   1     110.00   125.52   ; H-Oh-Cah
951   907   956   1     98.60    KANGLE ; Cah-Oh-Cah
910   909   1266  1     110.00   125.52   ; H-Oh-Cah
910   909   1271  1     110.00   125.52   ; H-Oh-Cah
910   909   1316  1     110.00   125.52   ; H-Oh-Cah
1266  909   1271  1     98.45    KANGLE ; Cah-Oh-Cah
1266  909   1316  1     98.32    KANGLE ; Cah-Oh-Cah
1271  909   1316  1     98.32    KANGLE ; Cah-Oh-Cah
504   911   549   1     98.04    KANGLE ; Oh-Cah-Oh
504   911   554   1     98.04    KANGLE ; Oh-Cah-Oh
504   911   862   1     81.62    KANGLE ; Oh-Cah-Oh
504   911   867   1     81.62    KANGLE ; Oh-Cah-Oh
504   911   912   1     179.79   KANGLE ; Oh-Cah-Oh
549   911   554   1     98.17    KANGLE ; Oh-Cah-Oh
549   911   862   1     81.81    KANGLE ; Oh-Cah-Oh
549   911   867   1     179.66   KANGLE ; Oh-Cah-Oh
549   911   912   1     81.82    KANGLE ; Oh-Cah-Oh
554   911   862   1     179.66   KANGLE ; Oh-Cah-Oh
554   911   867   1     81.81    KANGLE ; Oh-Cah-Oh
554   911   912   1     81.82    KANGLE ; Oh-Cah-Oh
862   911   867   1     98.20    KANGLE ; Oh-Cah-Oh
862   911   912   1     98.51    KANGLE ; Oh-Cah-Oh
867   911   912   1     98.51    KANGLE ; Oh-Cah-Oh
911   912   913   1     110.00   125.52   ; Cah-Oh-H
911   912   956   1     98.32    KANGLE ; Cah-Oh-Cah
911   912   961   1     98.32    KANGLE ; Cah-Oh-Cah
913   912   956   1     110.00   125.52   ; H-Oh-Cah
913   912   961   1     110.00   125.52   ; H-Oh-Cah
956   912   961   1     98.45    KANGLE ; Cah-Oh-Cah
915   914   1271  1     110.00   125.52   ; H-Oh-Cah
915   914   1276  1     110.00   125.52   ; H-Oh-Cah
915   914   1321  1     110.00   125.52   ; H-Oh-Cah
1271  914   1276  1     98.60    KANGLE ; Cah-Oh-Cah
1271  914   1321  1     98.32    KANGLE ; Cah-Oh-Cah
1276  914   1321  1     98.29    KANGLE ; Cah-Oh-Cah
509   916   554   1     98.02    KANGLE ; Oh-Cah-Oh
509   916   559   1     98.04    KANGLE ; Oh-Cah-Oh
509   916   867   1     81.65    KANGLE ; Oh-Cah-Oh
509   916   872   1     81.62    KANGLE ; Oh-Cah-Oh
509   916   917   1     179.68   KANGLE ; Oh-Cah-Oh
554   916   559   1     98.33    KANGLE ; Oh-Cah-Oh
554   916   867   1     81.50    KANGLE ; Oh-Cah-Oh
554   916   872   1     179.63   KANGLE ; Oh-Cah-Oh
554   916   917   1     81.66    KANGLE ; Oh-Cah-Oh
559   916   867   1     179.62   KANGLE ; Oh-Cah-Oh
559   916   872   1     81.81    KANGLE ; Oh-Cah-Oh
559   916   917   1     82.00    KANGLE ; Oh-Cah-Oh
867   916   872   1     98.36    KANGLE ; Oh-Cah-Oh
867   916   917   1     98.30    KANGLE ; Oh-Cah-Oh
872   916   917   1     98.70    KANGLE ; Oh-Cah-Oh
916   917   918   1     110.00   125.52   ; Cah-Oh-H
916   917   961   1     98.50    KANGLE ; Cah-Oh-Cah
916   917   966   1     98.10    KANGLE ; Cah-Oh-Cah
918   917   961   1     110.00   125.52   ; H-Oh-Cah
918   917   966   1     110.00   125.52   ; H-Oh-Cah
961   917   966   1     98.60    KANGLE ; Cah-Oh-Cah
920   919   1276  1     110.00   125.52   ; H-Oh-Cah
920   919   1281  1     110.00   125.52   ; H-Oh-Cah
920   919   1326  1     110.00   125.52   ; H-Oh-Cah
1276  919   1281  1     98.45    KANGLE ; Cah-Oh-Cah
1276  919   1326  1     98.32    KANGLE ; Cah-Oh-Cah
1281  919   1326  1     98.32    KANGLE ; Cah-Oh-Cah
514   921   559   1     98.04    KANGLE ; Oh-Cah-Oh
514   921   564   1     98.04    KANGLE ; Oh-Cah-Oh
514   921   872   1     81.62    KANGLE ; Oh-Cah-Oh
514   921   877   1     81.62    KANGLE ; Oh-Cah-Oh
514   921   922   1     179.79   KANGLE ; Oh-Cah-Oh
559   921   564   1     98.17    KANGLE ; Oh-Cah-Oh
559   921   872   1     81.81    KANGLE ; Oh-Cah-Oh
559   921   877   1     179.66   KANGLE ; Oh-Cah-Oh
559   921   922   1     81.82    KANGLE ; Oh-Cah-Oh
564   921   872   1     179.66   KANGLE ; Oh-Cah-Oh
564   921   877   1     81.81    KANGLE ; Oh-Cah-Oh
564   921   922   1     81.82    KANGLE ; Oh-Cah-Oh
872   921   877   1     98.20    KANGLE ; Oh-Cah-Oh
872   921   922   1     98.51    KANGLE ; Oh-Cah-Oh
877   921   922   1     98.51    KANGLE ; Oh-Cah-Oh
921   922   923   1     110.00   125.52   ; Cah-Oh-H
921   922   966   1     98.32    KANGLE ; Cah-Oh-Cah
921   922   971   1     98.32    KANGLE ; Cah-Oh-Cah
923   922   966   1     110.00   125.52   ; H-Oh-Cah
923   922   971   1     110.00   125.52   ; H-Oh-Cah
966   922   971   1     98.45    KANGLE ; Cah-Oh-Cah
925   924   1281  1     110.00   125.52   ; H-Oh-Cah
925   924   1286  1     110.00   125.52   ; H-Oh-Cah
925   924   1331  1     110.00   125.52   ; H-Oh-Cah
1281  924   1286  1     98.60    KANGLE ; Cah-Oh-Cah
1281  924   1331  1     98.32    KANGLE ; Cah-Oh-Cah
1286  924   1331  1     98.29    KANGLE ; Cah-Oh-Cah
519   926   564   1     98.02    KANGLE ; Oh-Cah-Oh
519   926   569   1     98.04    KANGLE ; Oh-Cah-Oh
519   926   877   1     81.65    KANGLE ; Oh-Cah-Oh
519   926   882   1     81.62    KANGLE ; Oh-Cah-Oh
519   926   927   1     179.68   KANGLE ; Oh-Cah-Oh
564   926   569   1     98.33    KANGLE ; Oh-Cah-Oh
564   926   877   1     81.50    KANGLE ; Oh-Cah-Oh
564   926   882   1     179.63   KANGLE ; Oh-Cah-Oh
564   926   927   1     81.66    KANGLE ; Oh-Cah-Oh
569   926   877   1     179.62   KANGLE ; Oh-Cah-Oh
569   926   882   1     81.81    KANGLE ; Oh-Cah-Oh
569   926   927   1     82.00    KANGLE ; Oh-Cah-Oh
877   926   882   1     98.36    KANGLE ; Oh-Cah-Oh
877   926   927   1     98.30    KANGLE ; Oh-Cah-Oh
882   926   927   1     98.70    KANGLE ; Oh-Cah-Oh
926   927   928   1     110.00   125.52   ; Cah-Oh-H
926   927   971   1     98.50    KANGLE ; Cah-Oh-Cah
926   927   976   1     98.10    KANGLE ; Cah-Oh-Cah
928   927   971   1     110.00   125.52   ; H-Oh-Cah
928   927   976   1     110.00   125.52   ; H-Oh-Cah
971   927   976   1     98.60    KANGLE ; Cah-Oh-Cah
930   929   1286  1     110.00   125.52   ; H-Oh-Cah
930   929   1291  1     110.00   125.52   ; H-Oh-Cah
930   929   1336  1     110.00   125.52   ; H-Oh-Cah
1286  929   1291  1     98.45    KANGLE ; Cah-Oh-Cah
1286  929   1336  1     98.32    KANGLE ; Cah-Oh-Cah
1291  929   1336  1     98.32    KANGLE ; Cah-Oh-Cah
524   931   569   1     98.04    KANGLE ; Oh-Cah-Oh
524   931   574   1     98.04    KANGLE ; Oh-Cah-Oh
524   931   882   1     81.62    KANGLE ; Oh-Cah-Oh
524   931   887   1     81.62    KANGLE ; Oh-Cah-Oh
524   931   932   1     179.79   KANGLE ; Oh-Cah-Oh
569   931   574   1     98.17    KANGLE ; Oh-Cah-Oh
569   931   882   1     81.81    KANGLE ; Oh-Cah-Oh
569   931   887   1     179.66   KANGLE ; Oh-Cah-Oh
569   931   932   1     81.82    KANGLE ; Oh-Cah-Oh
574   931   882   1     179.66   KANGLE ; Oh-Cah-Oh
574   931   887   1     81.81    KANGLE ; Oh-Cah-Oh
574   931   932   1     81.82    KANGLE ; Oh-Cah-Oh
882   931   887   1     98.20    KANGLE ; Oh-Cah-Oh
882   931   932   1     98.51    KANGLE ; Oh-Cah-Oh
887   931   932   1     98.51    KANGLE ; Oh-Cah-Oh
931   932   933   1     110.00   125.52   ; Cah-Oh-H
931   932   976   1     98.32    KANGLE ; Cah-Oh-Cah
931   932   981   1     98.32    KANGLE ; Cah-Oh-Cah
933   932   976   1     110.00   125.52   ; H-Oh-Cah
933   932   981   1     110.00   125.52   ; H-Oh-Cah
976   932   981   1     98.45    KANGLE ; Cah-Oh-Cah
935   934   1291  1     110.00   125.52   ; H-Oh-Cah
935   934   1296  1     110.00   125.52   ; H-Oh-Cah
935   934   1341  1     110.00   125.52   ; H-Oh-Cah
1291  934   1296  1     98.60    KANGLE ; Cah-Oh-Cah
1291  934   1341  1     98.32    KANGLE ; Cah-Oh-Cah
1296  934   1341  1     98.29    KANGLE ; Cah-Oh-Cah
529   936   574   1     98.02    KANGLE ; Oh-Cah-Oh
529   936   579   1     98.04    KANGLE ; Oh-Cah-Oh
529   936   887   1     81.65    KANGLE ; Oh-Cah-Oh
529   936   892   1     81.62    KANGLE ; Oh-Cah-Oh
529   936   937   1     179.68   KANGLE ; Oh-Cah-Oh
574   936   579   1     98.33    KANGLE ; Oh-Cah-Oh
574   936   887   1     81.50    KANGLE ; Oh-Cah-Oh
574   936   892   1     179.63   KANGLE ; Oh-Cah-Oh
574   936   937   1     81.66    KANGLE ; Oh-Cah-Oh
579   936   887   1     179.62   KANGLE ; Oh-Cah-Oh
579   936   892   1     81.81    KANGLE ; Oh-Cah-Oh
579   936   937   1     82.00    KANGLE ; Oh-Cah-Oh
887   936   892   1     98.36    KANGLE ; Oh-Cah-Oh
887   936   937   1     98.30    KANGLE ; Oh-Cah-Oh
892   936   937   1     98.70    KANGLE ; Oh-Cah-Oh
936   937   938   1     110.00   125.52   ; Cah-Oh-H
936   937   981   1     98.50    KANGLE ; Cah-Oh-Cah
936   937   986   1     98.10    KANGLE ; Cah-Oh-Cah
938   937   981   1     110.00   125.52   ; H-Oh-Cah
938   937   986   1     110.00   125.52   ; H-Oh-Cah
981   937   986   1     98.60    KANGLE ; Cah-Oh-Cah
940   939   1296  1     110.00   125.52   ; H-Oh-Cah
940   939   1301  1     110.00   125.52   ; H-Oh-Cah
940   939   1346  1     110.00   125.52   ; H-Oh-Cah
1296  939   1301  1     98.45    KANGLE ; Cah-Oh-Cah
1296  939   1346  1     98.32    KANGLE ; Cah-Oh-Cah
1301  939   1346  1     98.32    KANGLE ; Cah-Oh-Cah
534   941   579   1     98.04    KANGLE ; Oh-Cah-Oh
534   941   584   1     98.04    KANGLE ; Oh-Cah-Oh
534   941   892   1     81.62    KANGLE ; Oh-Cah-Oh
534   941   897   1     81.62    KANGLE ; Oh-Cah-Oh
534   941   942   1     179.79   KANGLE ; Oh-Cah-Oh
579   941   584   1     98.17    KANGLE ; Oh-Cah-Oh
579   941   892   1     81.81    KANGLE ; Oh-Cah-Oh
579   941   897   1     179.66   KANGLE ; Oh-Cah-Oh
579   941   942   1     81.82    KANGLE ; Oh-Cah-Oh
584   941   892   1     179.66   KANGLE ; Oh-Cah-Oh
584   941   897   1     81.81    KANGLE ; Oh-Cah-Oh
584   941   942   1     81.82    KANGLE ; Oh-Cah-Oh
892   941   897   1     98.20    KANGLE ; Oh-Cah-Oh
892   941   942   1     98.51    KANGLE ; Oh-Cah-Oh
897   941   942   1     98.51    KANGLE ; Oh-Cah-Oh
941   942   943   1     110.00   125.52   ; Cah-Oh-H
941   942   946   1     98.30    KANGLE ; Cah-Oh-Cah
941   942   986   1     98.32    KANGLE ; Cah-Oh-Cah
943   942   946   1     110.00   125.52   ; H-Oh-Cah
943   942   986   1     110.00   125.52   ; H-Oh-Cah
946   942   986   1     98.53    KANGLE ; Cah-Oh-Cah
945   944   1261  1     110.00   125.52   ; H-Oh-Cah
945   944   1301  1     110.00   125.52   ; H-Oh-Cah
945   944   1306  1     110.00   125.52   ; H-Oh-Cah
1261  944   1301  1     98.53    KANGLE ; Cah-Oh-Cah
1261  944   1306  1     98.21    KANGLE ; Cah-Oh-Cah
1301  944   1306  1     98.41    KANGLE ; Cah-Oh-Cah
584   946   589   1     98.33    KANGLE ; Oh-Cah-Oh
584   946   629   1     98.14    KANGLE ; Oh-Cah-Oh
584   946   902   1     81.91    KANGLE ; Oh-Cah-Oh
584   946   942   1     81.74    KANGLE ; Oh-Cah-Oh
584   946   947   1     179.76   KANGLE ; Oh-Cah-Oh
589   946   629   1     98.01    KANGLE ; Oh-Cah-Oh
589   946   902   1     81.81    KANGLE ; Oh-Cah-Oh
589   946   942   1     179.66   KANGLE ; Oh-Cah-Oh
589   946   947   1     81.62    KANGLE ; Oh-Cah-Oh
629   946   902   1     179.82   KANGLE ; Oh-Cah-Oh
629   946   942   1     81.65    KANGLE ; Oh-Cah-Oh
629   946   947   1     81.63    KANGLE ; Oh-Cah-Oh
902   946   942   1     98.53    KANGLE ; Oh-Cah-Oh
902   946   947   1     98.32    KANGLE ; Oh-Cah-Oh
942   946   947   1     98.30    KANGLE ; Oh-Cah-Oh
946   947   948   1     110.00   125.52   ; Cah-Oh-H
946   947   991   1     98.51    KANGLE ; Cah-Oh-Cah
946   947   996   1     98.51    KANGLE ; Cah-Oh-Cah
948   947   991   1     110.00   125.52   ; H-Oh-Cah
948   947   996   1     110.00   125.52   ; H-Oh-Cah
991   947   996   1     98.20    KANGLE ; Cah-Oh-Cah
950   949   1306  1     110.00   125.52   ; H-Oh-Cah
950   949   1311  1     110.00   125.52   ; H-Oh-Cah
950   949   1356  1     110.00   125.52   ; H-Oh-Cah
1306  949   1311  1     98.20    KANGLE ; Cah-Oh-Cah
1306  949   1356  1     98.51    KANGLE ; Cah-Oh-Cah
1311  949   1356  1     98.51    KANGLE ; Cah-Oh-Cah
544   951   589   1     98.24    KANGLE ; Oh-Cah-Oh
544   951   594   1     98.22    KANGLE ; Oh-Cah-Oh
544   951   902   1     81.82    KANGLE ; Oh-Cah-Oh
544   951   907   1     81.82    KANGLE ; Oh-Cah-Oh
544   951   952   1     179.79   KANGLE ; Oh-Cah-Oh
589   951   594   1     98.09    KANGLE ; Oh-Cah-Oh
589   951   902   1     81.81    KANGLE ; Oh-Cah-Oh
589   951   907   1     179.74   KANGLE ; Oh-Cah-Oh
589   951   952   1     81.62    KANGLE ; Oh-Cah-Oh
594   951   902   1     179.90   KANGLE ; Oh-Cah-Oh
594   951   907   1     81.65    KANGLE ; Oh-Cah-Oh
594   951   952   1     81.65    KANGLE ; Oh-Cah-Oh
902   951   907   1     98.45    KANGLE ; Oh-Cah-Oh
902   951   952   1     98.32    KANGLE ; Oh-Cah-Oh
907   951   952   1     98.32    KANGLE ; Oh-Cah-Oh
951   952   953   1     110.00   125.52   ; Cah-Oh-H
951   952   996   1     98.51    KANGLE ; Cah-Oh-Cah
951   952   1001  1     98.49    KANGLE ; Cah-Oh-Cah
953   952   996   1     110.00   125.52   ; H-Oh-Cah
953   952   1001  1     110.00   125.52   ; H-Oh-Cah
996   952   1001  1     98.36    KANGLE ; Cah-Oh-Cah
955   954   1311  1     110.00   125.52   ; H-Oh-Cah
955   954   1316  1     110.00   125.52   ; H-Oh-Cah
955   954   1361  1     110.00   125.52   ; H-Oh-Cah
1311  954   1316  1     98.36    KANGLE ; Cah-Oh-Cah
1311  954   1361  1     98.49    KANGLE ; Cah-Oh-Cah
1316  954   1361  1     98.51    KANGLE ; Cah-Oh-Cah
549   956   594   1     98.24    KANGLE ; Oh-Cah-Oh
549   956   599   1     98.24    KANGLE ; Oh-Cah-Oh
549   956   907   1     81.85    KANGLE ; Oh-Cah-Oh
549   956   912   1     81.82    KANGLE ; Oh-Cah-Oh
549   956   957   1     179.79   KANGLE ; Oh-Cah-Oh
594   956   599   1     97.93    KANGLE ; Oh-Cah-Oh
594   956   907   1     81.65    KANGLE ; Oh-Cah-Oh
594   956   912   1     179.74   KANGLE ; Oh-Cah-Oh
594   956   957   1     81.62    KANGLE ; Oh-Cah-Oh
599   956   907   1     179.58   KANGLE ; Oh-Cah-Oh
599   956   912   1     81.81    KANGLE ; Oh-Cah-Oh
599   956   957   1     81.62    KANGLE ; Oh-Cah-Oh
907   956   912   1     98.60    KANGLE ; Oh-Cah-Oh
907   956   957   1     98.29    KANGLE ; Oh-Cah-Oh
912   956   957   1     98.32    KANGLE ; Oh-Cah-Oh
956   957   958   1     110.00   125.52   ; Cah-Oh-H
956   957   1001  1     98.51    KANGLE ; Cah-Oh-Cah
956   957   1006  1     98.51    KANGLE ; Cah-Oh-Cah
958   957   1001  1     110.00   125.52   ; H-Oh-Cah
958   957   1006  1     110.00   125.52   ; H-Oh-Cah
1001  957   1006  1     98.20    KANGLE ; Cah-Oh-Cah
960   959   1316  1     110.00   125.52   ; H-Oh-Cah
960   959   1321  1     110.00   125.52   ; H-Oh-Cah
960   959   1366  1     110.00   125.52   ; H-Oh-Cah
1316  959   1321  1     98.20    KANGLE ; Cah-Oh-Cah
1316  959   1366  1     98.51    KANGLE ; Cah-Oh-Cah
1321  959   1366  1     98.51    KANGLE ; Cah-Oh-Cah
554   961   599   1     98.24    KANGLE ; Oh-Cah-Oh
554   961   604   1     98.22    KANGLE ; Oh-Cah-Oh
554   961   912   1     81.82    KANGLE ; Oh-Cah-Oh
554   961   917   1     81.82    KANGLE ; Oh-Cah-Oh
554   961   962   1     179.79   KANGLE ; Oh-Cah-Oh
599   961   604   1     98.09    KANGLE ; Oh-Cah-Oh
599   961   912   1     81.81    KANGLE ; Oh-Cah-Oh
599   961   917   1     179.74   KANGLE ; Oh-Cah-Oh
599   961   962   1     81.62    KANGLE ; Oh-Cah-Oh
604   961   912   1     179.90   KANGLE ; Oh-Cah-Oh
604   961   917   1     81.65    KANGLE ; Oh-Cah-Oh
604   961   962   1     81.65    KANGLE ; Oh-Cah-Oh
912   961   917   1     98.45    KANGLE ; Oh-Cah-Oh
912   961   962   1     98.32    KANGLE ; Oh-Cah-Oh
917   961   962   1     98.32    KANGLE ; Oh-Cah-Oh
961   962   963   1     110.00   125.52   ; Cah-Oh-H
961   962   1006  1     98.51    KANGLE ; Cah-Oh-Cah
961   962   1011  1     98.49    KANGLE ; Cah-Oh-Cah
963   962   1006  1     110.00   125.52   ; H-Oh-Cah
963   962   1011  1     110.00   125.52   ; H-Oh-Cah
1006  962   1011  1     98.36    KANGLE ; Cah-Oh-Cah
965   964   1321  1     110.00   125.52   ; H-Oh-Cah
965   964   1326  1     110.00   125.52   ; H-Oh-Cah
965   964   1371  1     110.00   125.52   ; H-Oh-Cah
1321  964   1326  1     98.36    KANGLE ; Cah-Oh-Cah
1321  964   1371  1     98.49    KANGLE ; Cah-Oh-Cah
1326  964   1371  1     98.51    KANGLE ; Cah-Oh-Cah
559   966   604   1     98.24    KANGLE ; Oh-Cah-Oh
559   966   609   1     98.24    KANGLE ; Oh-Cah-Oh
559   966   917   1     81.85    KANGLE ; Oh-Cah-Oh
559   966   922   1     81.82    KANGLE ; Oh-Cah-Oh
559   966   967   1     179.79   KANGLE ; Oh-Cah-Oh
604   966   609   1     97.93    KANGLE ; Oh-Cah-Oh
604   966   917   1     81.65    KANGLE ; Oh-Cah-Oh
604   966   922   1     179.74   KANGLE ; Oh-Cah-Oh
604   966   967   1     81.62    KANGLE ; Oh-Cah-Oh
609   966   917   1     179.58   KANGLE ; Oh-Cah-Oh
609   966   922   1     81.81    KANGLE ; Oh-Cah-Oh
609   966   967   1     81.62    KANGLE ; Oh-Cah-Oh
917   966   922   1     98.60    KANGLE ; Oh-Cah-Oh
917   966   967   1     98.29    KANGLE ; Oh-Cah-Oh
922   966   967   1     98.32    KANGLE ; Oh-Cah-Oh
966   967   968   1     110.00   125.52   ; Cah-Oh-H
966   967   1011  1     98.51    KANGLE ; Cah-Oh-Cah
966   967   1016  1     98.51    KANGLE ; Cah-Oh-Cah
968   967   1011  1     110.00   125.52   ; H-Oh-Cah
968   967   1016  1     110.00   125.52   ; H-Oh-Cah
1011  967   1016  1     98.20    KANGLE ; Cah-Oh-Cah
970   969   1326  1     110.00   125.52   ; H-Oh-Cah
970   969   1331  1     110.00   125.52   ; H-Oh-Cah
970   969   1376  1     110.00   125.52   ; H-Oh-Cah
1326  969   1331  1     98.20    KANGLE ; Cah-Oh-Cah
1326  969   1376  1     98.51    KANGLE ; Cah-Oh-Cah
1331  969   1376  1     98.51    KANGLE ; Cah-Oh-Cah
564   971   609   1     98.24    KANGLE ; Oh-Cah-Oh
564   971   614   1     98.22    KANGLE ; Oh-Cah-Oh
564   971   922   1     81.82    KANGLE ; Oh-Cah-Oh
564   971   927   1     81.82    KANGLE ; Oh-Cah-Oh
564   971   972   1     179.79   KANGLE ; Oh-Cah-Oh
609   971   614   1     98.09    KANGLE ; Oh-Cah-Oh
609   971   922   1     81.81    KANGLE ; Oh-Cah-Oh
609   971   927   1     179.74   KANGLE ; Oh-Cah-Oh
609   971   972   1     81.62    KANGLE ; Oh-Cah-Oh
614   971   922   1     179.90   KANGLE ; Oh-Cah-Oh
614   971   927   1     81.65    KANGLE ; Oh-Cah-Oh
614   971   972   1     81.65    KANGLE ; Oh-Cah-Oh
922   971   927   1     98.45    KANGLE ; Oh-Cah-Oh
922   971   972   1     98.32    KANGLE ; Oh-Cah-Oh
927   971   972   1     98.32    KANGLE ; Oh-Cah-Oh
971   972   973   1     110.00   125.52   ; Cah-Oh-H
971   972   1016  1     98.51    KANGLE ; Cah-Oh-Cah
971   972   1021  1     98.49    KANGLE ; Cah-Oh-Cah
973   972   1016  1     110.00   125.52   ; H-Oh-Cah
973   972   1021  1     110.00   125.52   ; H-Oh-Cah
1016  972   1021  1     98.36    KANGLE ; Cah-Oh-Cah
975   974   1331  1     110.00   125.52   ; H-Oh-Cah
975   974   1336  1     110.00   125.52   ; H-Oh-Cah
975   974   1381  1     110.00   125.52   ; H-Oh-Cah
1331  974   1336  1     98.36    KANGLE ; Cah-Oh-Cah
1331  974   1381  1     98.49    KANGLE ; Cah-Oh-Cah
1336  974   1381  1     98.51    KANGLE ; Cah-Oh-Cah
569   976   614   1     98.24    KANGLE ; Oh-Cah-Oh
569   976   619   1     98.24    KANGLE ; Oh-Cah-Oh
569   976   927   1     81.85    KANGLE ; Oh-Cah-Oh
569   976   932   1     81.82    KANGLE ; Oh-Cah-Oh
569   976   977   1     179.79   KANGLE ; Oh-Cah-Oh
614   976   619   1     97.93    KANGLE ; Oh-Cah-Oh
614   976   927   1     81.65    KANGLE ; Oh-Cah-Oh
614   976   932   1     179.74   KANGLE ; Oh-Cah-Oh
614   976   977   1     81.62    KANGLE ; Oh-Cah-Oh
619   976   927   1     179.58   KANGLE ; Oh-Cah-Oh
619   976   932   1     81.81    KANGLE ; Oh-Cah-Oh
619   976   977   1     81.62    KANGLE ; Oh-Cah-Oh
927   976   932   1     98.60    KANGLE ; Oh-Cah-Oh
927   976   977   1     98.29    KANGLE ; Oh-Cah-Oh
932   976   977   1     98.32    KANGLE ; Oh-Cah-Oh
976   977   978   1     110.00   125.52   ; Cah-Oh-H
976   977   1021  1     98.51    KANGLE ; Cah-Oh-Cah
976   977   1026  1     98.51    KANGLE ; Cah-Oh-Cah
978   977   1021  1     110.00   125.52   ; H-Oh-Cah
978   977   1026  1     110.00   125.52   ; H-Oh-Cah
1021  977   1026  1     98.20    KANGLE ; Cah-Oh-Cah
980   979   1336  1     110.00   125.52   ; H-Oh-Cah
980   979   1341  1     110.00   125.52   ; H-Oh-Cah
980   979   1386  1     110.00   125.52   ; H-Oh-Cah
1336  979   1341  1     98.20    KANGLE ; Cah-Oh-Cah
1336  979   1386  1     98.51    KANGLE ; Cah-Oh-Cah
1341  979   1386  1     98.51    KANGLE ; Cah-Oh-Cah
574   981   619   1     98.24    KANGLE ; Oh-Cah-Oh
574   981   624   1     98.22    KANGLE ; Oh-Cah-Oh
574   981   932   1     81.82    KANGLE ; Oh-Cah-Oh
574   981   937   1     81.82    KANGLE ; Oh-Cah-Oh
574   981   982   1     179.79   KANGLE ; Oh-Cah-Oh
619   981   624   1     98.09    KANGLE ; Oh-Cah-Oh
619   981   932   1     81.81    KANGLE ; Oh-Cah-Oh
619   981   937   1     179.74   KANGLE ; Oh-Cah-Oh
619   981   982   1     81.62    KANGLE ; Oh-Cah-Oh
624   981   932   1     179.90   KANGLE ; Oh-Cah-Oh
624   981   937   1     81.65    KANGLE ; Oh-Cah-Oh
624   981   982   1     81.65    KANGLE ; Oh-Cah-Oh
932   981   937   1     98.45    KANGLE ; Oh-Cah-Oh
932   981   982   1     98.32    KANGLE ; Oh-Cah-Oh
937   981   982   1     98.32    KANGLE ; Oh-Cah-Oh
981   982   983   1     110.00   125.52   ; Cah-Oh-H
981   982   1026  1     98.51    KANGLE ; Cah-Oh-Cah
981   982   1031  1     98.49    KANGLE ; Cah-Oh-Cah
983   982   1026  1     110.00   125.52   ; H-Oh-Cah
983   982   1031  1     110.00   125.52   ; H-Oh-Cah
1026  982   1031  1     98.36    KANGLE ; Cah-Oh-Cah
985   984   1341  1     110.00   125.52   ; H-Oh-Cah
985   984   1346  1     110.00   125.52   ; H-Oh-Cah
985   984   1391  1     110.00   125.52   ; H-Oh-Cah
1341  984   1346  1     98.36    KANGLE ; Cah-Oh-Cah
1341  984   1391  1     98.49    KANGLE ; Cah-Oh-Cah
1346  984   1391  1     98.51    KANGLE ; Cah-Oh-Cah
579   986   624   1     98.24    KANGLE ; Oh-Cah-Oh
579   986   629   1     98.24    KANGLE ; Oh-Cah-Oh
579   986   937   1     81.85    KANGLE ; Oh-Cah-Oh
579   986   942   1     81.82    KANGLE ; Oh-Cah-Oh
579   986   987   1     179.79   KANGLE ; Oh-Cah-Oh
624   986   629   1     97.93    KANGLE ; Oh-Cah-Oh
624   986   937   1     81.65    KANGLE ; Oh-Cah-Oh
624   986   942   1     179.74   KANGLE ; Oh-Cah-Oh
624   986   987   1     81.62    KANGLE ; Oh-Cah-Oh
629   986   937   1     179.58   KANGLE ; Oh-Cah-Oh
629   986   942   1     81.81    KANGLE ; Oh-Cah-Oh
629   986   987   1     81.62    KANGLE ; Oh-Cah-Oh
937   986   942   1     98.60    KANGLE ; Oh-Cah-Oh
937   986   987   1     98.29    KANGLE ; Oh-Cah-Oh
942   986   987   1     98.32    KANGLE ; Oh-Cah-Oh
986   987   988   1     110.00   125.52   ; Cah-Oh-H
986   987   991   1     98.50    KANGLE ; Cah-Oh-Cah
986   987   1031  1     98.51    KANGLE ; Cah-Oh-Cah
988   987   991   1     110.00   125.52   ; H-Oh-Cah
988   987   1031  1     110.00   125.52   ; H-Oh-Cah
991   987   1031  1     98.28    KANGLE ; Cah-Oh-Cah
990   989   1306  1     110.00   125.52   ; H-Oh-Cah
990   989   1346  1     110.00   125.52   ; H-Oh-Cah
990   989   1351  1     110.00   125.52   ; H-Oh-Cah
1306  989   1346  1     98.28    KANGLE ; Cah-Oh-Cah
1306  989   1351  1     98.41    KANGLE ; Cah-Oh-Cah
1346  989   1351  1     98.61    KANGLE ; Cah-Oh-Cah
629   991   634   1     98.14    KANGLE ; Oh-Cah-Oh
629   991   674   1     97.94    KANGLE ; Oh-Cah-Oh
629   991   947   1     81.71    KANGLE ; Oh-Cah-Oh
629   991   987   1     81.54    KANGLE ; Oh-Cah-Oh
629   991   992   1     179.58   KANGLE ; Oh-Cah-Oh
634   991   674   1     98.25    KANGLE ; Oh-Cah-Oh
634   991   947   1     81.81    KANGLE ; Oh-Cah-Oh
634   991   987   1     179.65   KANGLE ; Oh-Cah-Oh
634   991   992   1     82.00    KANGLE ; Oh-Cah-Oh
674   991   947   1     179.65   KANGLE ; Oh-Cah-Oh
674   991   987   1     81.65    KANGLE ; Oh-Cah-Oh
674   991   992   1     81.65    KANGLE ; Oh-Cah-Oh
947   991   987   1     98.28    KANGLE ; Oh-Cah-Oh
947   991   992   1     98.70    KANGLE ; Oh-Cah-Oh
987   991   992   1     98.32    KANGLE ; Oh-Cah-Oh
991   992   993   1     110.00   125.52   ; Cah-Oh-H
991   992   1036  1     98.50    KANGLE ; Cah-Oh-Cah
991   992   1041  1     98.10    KANGLE ; Cah-Oh-Cah
993   992   1036  1     110.00   125.52   ; H-Oh-Cah
993   992   1041  1     110.00   125.52   ; H-Oh-Cah
1036  992   1041  1     98.60    KANGLE ; Cah-Oh-Cah
995   994   1351  1     110.00   125.52   ; H-Oh-Cah
995   994   1356  1     110.00   125.52   ; H-Oh-Cah
995   994   1401  1     110.00   125.52   ; H-Oh-Cah
1351  994   1356  1     98.45    KANGLE ; Cah-Oh-Cah
1351  994   1401  1     98.32    KANGLE ; Cah-Oh-Cah
1356  994   1401  1     98.32    KANGLE ; Cah-Oh-Cah
589   996   634   1     98.04    KANGLE ; Oh-Cah-Oh
589   996   639   1     98.04    KANGLE ; Oh-Cah-Oh
589   996   947   1     81.62    KANGLE ; Oh-Cah-Oh
589   996   952   1     81.62    KANGLE ; Oh-Cah-Oh
589   996   997   1     179.79   KANGLE ; Oh-Cah-Oh
634   996   639   1     98.17    KANGLE ; Oh-Cah-Oh
634   996   947   1     81.81    KANGLE ; Oh-Cah-Oh
634   996   952   1     179.66   KANGLE ; Oh-Cah-Oh
634   996   997   1     81.82    KANGLE ; Oh-Cah-Oh
639   996   947   1     179.66   KANGLE ; Oh-Cah-Oh
639   996   952   1     81.81    KANGLE ; Oh-Cah-Oh
639   996   997   1     81.82    KANGLE ; Oh-Cah-Oh
947   996   952   1     98.20    KANGLE ; Oh-Cah-Oh
947   996   997   1     98.51    KANGLE ; Oh-Cah-Oh
952   996   997   1     98.51    KANGLE ; Oh-Cah-Oh
996   997   998   1     110.00   125.52   ; Cah-Oh-H
996   997   1041  1     98.32    KANGLE ; Cah-Oh-Cah
996   997   1046  1     98.32    KANGLE ; Cah-Oh-Cah
998   997   1041  1     110.00   125.52   ; H-Oh-Cah
998   997   1046  1     110.00   125.52   ; H-Oh-Cah
1041  997   1046  1     98.45    KANGLE ; Cah-Oh-Cah
1000  999   1356  1     110.00   125.52   ; H-Oh-Cah
1000  999   1361  1     110.00   125.52   ; H-Oh-Cah
1000  999   1406  1     110.00   125.52   ; H-Oh-Cah
1356  999   1361  1     98.60    KANGLE ; Cah-Oh-Cah
1356  999   1406  1     98.32    KANGLE ; Cah-Oh-Cah
1361  999   1406  1     98.29    KANGLE ; Cah-Oh-Cah
594   1001  639   1     98.02    KANGLE ; Oh-Cah-Oh
594   1001  644   1     98.04    KANGLE ; Oh-Cah-Oh
594   1001  952   1     81.65    KANGLE ; Oh-Cah-Oh
594   1001  957   1     81.62    KANGLE ; Oh-Cah-Oh
594   1001  1002  1     179.68   KANGLE ; Oh-Cah-Oh
639   1001  644   1     98.33    KANGLE ; Oh-Cah-Oh
639   1001  952   1     81.50    KANGLE ; Oh-Cah-Oh
639   1001  957   1     179.63   KANGLE ; Oh-Cah-Oh
639   1001  1002  1     81.66    KANGLE ; Oh-Cah-Oh
644   1001  952   1     179.62   KANGLE ; Oh-Cah-Oh
644   1001  957   1     81.81    KANGLE ; Oh-Cah-Oh
644   1001  1002  1     82.00    KANGLE ; Oh-Cah-Oh
952   1001  957   1     98.36    KANGLE ; Oh-Cah-Oh
952   1001  1002  1     98.30    KANGLE ; Oh-Cah-Oh
957   1001  1002  1     98.70    KANGLE ; Oh-Cah-Oh
1001  1002  1003  1     110.00   125.52   ; Cah-Oh-H
1001  1002  1046  1     98.50    KANGLE ; Cah-Oh-Cah
1001  1002  1051  1     98.10    KANGLE ; Cah-Oh-Cah
1003  1002  1046  1     110.00   125.52   ; H-Oh-Cah
1003  1002  1051  1     110.00   125.52   ; H-Oh-Cah
1046  1002  1051  1     98.60    KANGLE ; Cah-Oh-Cah
1005  1004  1361  1     110.00   125.52   ; H-Oh-Cah
1005  1004  1366  1     110.00   125.52   ; H-Oh-Cah
1005  1004  1411  1     110.00   125.52   ; H-Oh-Cah
1361  1004  1366  1     98.45    KANGLE ; Cah-Oh-Cah
1361  1004  1411  1     98.32    KANGLE ; Cah-Oh-Cah
1366  1004  1411  1     98.32    KANGLE ; Cah-Oh-Cah
599   1006  644   1     98.04    KANGLE ; Oh-Cah-Oh
599   1006  649   1     98.04    KANGLE ; Oh-Cah-Oh
599   1006  957   1     81.62    KANGLE ; Oh-Cah-Oh
599   1006  962   1     81.62    KANGLE ; Oh-Cah-Oh
599   1006  1007  1     179.79   KANGLE ; Oh-Cah-Oh
644   1006  649   1     98.17    KANGLE ; Oh-Cah-Oh
644   1006  957   1     81.81    KANGLE ; Oh-Cah-Oh
644   1006  962   1     179.66   KANGLE ; Oh-Cah-Oh
644   1006  1007  1     81.82    KANGLE ; Oh-Cah-Oh
649   1006  957   1     179.66   KANGLE ; Oh-Cah-Oh
649   1006  962   1     81.81    KANGLE ; Oh-Cah-Oh
649   1006  1007  1     81.82    KANGLE ; Oh-Cah-Oh
957   1006  962   1     98.20    KANGLE ; Oh-Cah-Oh
957   1006  1007  1     98.51    KANGLE ; Oh-Cah-Oh
962   1006  1007  1     98.51    KANGLE ; Oh-Cah-Oh
1006  1007  1008  1     110.00   125.52   ; Cah-Oh-H
1006  1007  1051  1     98.32    KANGLE ; Cah-Oh-Cah
1006  1007  1056  1     98.32    KANGLE ; Cah-Oh-Cah
1008  1007  1051  1     110.00   125.52   ; H-Oh-Cah
1008  1007  1056  1     110.00   125.52   ; H-Oh-Cah
1051  1007  1056  1     98.45    KANGLE ; Cah-Oh-Cah
1010  1009  1366  1     110.00   125.52   ; H-Oh-Cah
1010  1009  1371  1     110.00   125.52   ; H-Oh-Cah
1010  1009  1416  1     110.00   125.52   ; H-Oh-Cah
1366  1009  1371  1     98.60    KANGLE ; Cah-Oh-Cah
1366  1009  1416  1     98.32    KANGLE ; Cah-Oh-Cah
1371  1009  1416  1     98.29    KANGLE ; Cah-Oh-Cah
604   1011  649   1     98.02    KANGLE ; Oh-Cah-Oh
604   1011  654   1     98.04    KANGLE ; Oh-Cah-Oh
604   1011  962   1     81.65    KANGLE ; Oh-Cah-Oh
604   1011  967   1     81.62    KANGLE ; Oh-Cah-Oh
604   1011  1012  1     179.68   KANGLE ; Oh-Cah-Oh
649   1011  654   1     98.33    KANGLE ; Oh-Cah-Oh
649   1011  962   1     81.50    KANGLE ; Oh-Cah-Oh
649   1011  967   1     179.63   KANGLE ; Oh-Cah-Oh
649   1011  1012  1     81.66    KANGLE ; Oh-Cah-Oh
654   1011  962   1     179.62   KANGLE ; Oh-Cah-Oh
654   1011  967   1     81.81    KANGLE ; Oh-Cah-Oh
654   1011  1012  1     82.00    KANGLE ; Oh-Cah-Oh
962   1011  967   1     98.36    KANGLE ; Oh-Cah-Oh
962   1011  1012  1     98.30    KANGLE ; Oh-Cah-Oh
967   1011  1012  1     98.70    KANGLE ; Oh-Cah-Oh
1011  1012  1013  1     110.00   125.52   ; Cah-Oh-H
1011  1012  1056  1     98.50    KANGLE ; Cah-Oh-Cah
1011  1012  1061  1     98.10    KANGLE ; Cah-Oh-Cah
1013  1012  1056  1     110.00   125.52   ; H-Oh-Cah
1013  1012  1061  1     110.00   125.52   ; H-Oh-Cah
1056  1012  1061  1     98.60    KANGLE ; Cah-Oh-Cah
1015  1014  1371  1     110.00   125.52   ; H-Oh-Cah
1015  1014  1376  1     110.00   125.52   ; H-Oh-Cah
1015  1014  1421  1     110.00   125.52   ; H-Oh-Cah
1371  1014  1376  1     98.45    KANGLE ; Cah-Oh-Cah
1371  1014  1421  1     98.32    KANGLE ; Cah-Oh-Cah
1376  1014  1421  1     98.32    KANGLE ; Cah-Oh-Cah
609   1016  654   1     98.04    KANGLE ; Oh-Cah-Oh
609   1016  659   1     98.04    KANGLE ; Oh-Cah-Oh
609   1016  967   1     81.62    KANGLE ; Oh-Cah-Oh
609   1016  972   1     81.62    KANGLE ; Oh-Cah-Oh
609   1016  1017  1     179.79   KANGLE ; Oh-Cah-Oh
654   1016  659   1     98.17    KANGLE ; Oh-Cah-Oh
654   1016  967   1     81.81    KANGLE ; Oh-Cah-Oh
654   1016  972   1     179.66   KANGLE ; Oh-Cah-Oh
654   1016  1017  1     81.82    KANGLE ; Oh-Cah-Oh
659   1016  967   1     179.66   KANGLE ; Oh-Cah-Oh
659   1016  972   1     81.81    KANGLE ; Oh-Cah-Oh
659   1016  1017  1     81.82    KANGLE ; Oh-Cah-Oh
967   1016  972   1     98.20    KANGLE ; Oh-Cah-Oh
967   1016  1017  1     98.51    KANGLE ; Oh-Cah-Oh
972   1016  1017  1     98.51    KANGLE ; Oh-Cah-Oh
1016  1017  1018  1     110.00   125.52   ; Cah-Oh-H
1016  1017  1061  1     98.32    KANGLE ; Cah-Oh-Cah
1016  1017  1066  1     98.32    KANGLE ; Cah-Oh-Cah
1018  1017  1061  1     110.00   125.52   ; H-Oh-Cah
1018  1017  1066  1     110.00   125.52   ; H-Oh-Cah
1061  1017  1066  1     98.45    KANGLE ; Cah-Oh-Cah
1020  1019  1376  1     110.00   125.52   ; H-Oh-Cah
1020  1019  1381  1     110.00   125.52   ; H-Oh-Cah
1020  1019  1426  1     110.00   125.52   ; H-Oh-Cah
1376  1019  1381  1     98.60    KANGLE ; Cah-Oh-Cah
1376  1019  1426  1     98.32    KANGLE ; Cah-Oh-Cah
1381  1019  1426  1     98.29    KANGLE ; Cah-Oh-Cah
614   1021  659   1     98.02    KANGLE ; Oh-Cah-Oh
614   1021  664   1     98.04    KANGLE ; Oh-Cah-Oh
614   1021  972   1     81.65    KANGLE ; Oh-Cah-Oh
614   1021  977   1     81.62    KANGLE ; Oh-Cah-Oh
614   1021  1022  1     179.68   KANGLE ; Oh-Cah-Oh
659   1021  664   1     98.33    KANGLE ; Oh-Cah-Oh
659   1021  972   1     81.50    KANGLE ; Oh-Cah-Oh
659   1021  977   1     179.63   KANGLE ; Oh-Cah-Oh
659   1021  1022  1     81.66    KANGLE ; Oh-Cah-Oh
664   1021  972   1     179.62   KANGLE ; Oh-Cah-Oh
664   1021  977   1     81.81    KANGLE ; Oh-Cah-Oh
664   1021  1022  1     82.00    KANGLE ; Oh-Cah-Oh
972   1021  977   1     98.36    KANGLE ; Oh-Cah-Oh
972   1021  1022  1     98.30    KANGLE ; Oh-Cah-Oh
977   1021  1022  1     98.70    KANGLE ; Oh-Cah-Oh
1021  1022  1023  1     110.00   125.52   ; Cah-Oh-H
1021  1022  1066  1     98.50    KANGLE ; Cah-Oh-Cah
1021  1022  1071  1     98.10    KANGLE ; Cah-Oh-Cah
1023  1022  1066  1     110.00   125.52   ; H-Oh-Cah
1023  1022  1071  1     110.00   125.52   ; H-Oh-Cah
1066  1022  1071  1     98.60    KANGLE ; Cah-Oh-Cah
1025  1024  1381  1     110.00   125.52   ; H-Oh-Cah
1025  1024  1386  1     110.00   125.52   ; H-Oh-Cah
1025  1024  1431  1     110.00   125.52   ; H-Oh-Cah
1381  1024  1386  1     98.45    KANGLE ; Cah-Oh-Cah
1381  1024  1431  1     98.32    KANGLE ; Cah-Oh-Cah
1386  1024  1431  1     98.32    KANGLE ; Cah-Oh-Cah
619   1026  664   1     98.04    KANGLE ; Oh-Cah-Oh
619   1026  669   1     98.04    KANGLE ; Oh-Cah-Oh
619   1026  977   1     81.62    KANGLE ; Oh-Cah-Oh
619   1026  982   1     81.62    KANGLE ; Oh-Cah-Oh
619   1026  1027  1     179.79   KANGLE ; Oh-Cah-Oh
664   1026  669   1     98.17    KANGLE ; Oh-Cah-Oh
664   1026  977   1     81.81    KANGLE ; Oh-Cah-Oh
664   1026  982   1     179.66   KANGLE ; Oh-Cah-Oh
664   1026  1027  1     81.82    KANGLE ; Oh-Cah-Oh
669   1026  977   1     179.66   KANGLE ; Oh-Cah-Oh
669   1026  982   1     81.81    KANGLE ; Oh-Cah-Oh
669   1026  1027  1     81.82    KANGLE ; Oh-Cah-Oh
977   1026  982   1     98.20    KANGLE ; Oh-Cah-Oh
977   1026  1027  1     98.51    KANGLE ; Oh-Cah-Oh
982   1026  1027  1     98.51    KANGLE ; Oh-Cah-Oh
1026  1027  1028  1     110.00   125.52   ; Cah-Oh-H
1026  1027  1071  1     98.32    KANGLE ; Cah-Oh-Cah
1026  1027  1076  1     98.32    KANGLE ; Cah-Oh-Cah
1028  1027  1071  1     110.00   125.52   ; H-Oh-Cah
1028  1027  1076  1     110.00   125.52   ; H-Oh-Cah
1071  1027  1076  1     98.45    KANGLE ; Cah-Oh-Cah
1030  1029  1386  1     110.00   125.52   ; H-Oh-Cah
1030  1029  1391  1     110.00   125.52   ; H-Oh-Cah
1030  1029  1436  1     110.00   125.52   ; H-Oh-Cah
1386  1029  1391  1     98.60    KANGLE ; Cah-Oh-Cah
1386  1029  1436  1     98.32    KANGLE ; Cah-Oh-Cah
1391  1029  1436  1     98.29    KANGLE ; Cah-Oh-Cah
624   1031  669   1     98.02    KANGLE ; Oh-Cah-Oh
624   1031  674   1     98.04    KANGLE ; Oh-Cah-Oh
624   1031  982   1     81.65    KANGLE ; Oh-Cah-Oh
624   1031  987   1     81.62    KANGLE ; Oh-Cah-Oh
624   1031  1032  1     179.68   KANGLE ; Oh-Cah-Oh
669   1031  674   1     98.33    KANGLE ; Oh-Cah-Oh
669   1031  982   1     81.50    KANGLE ; Oh-Cah-Oh
669   1031  987   1     179.63   KANGLE ; Oh-Cah-Oh
669   1031  1032  1     81.66    KANGLE ; Oh-Cah-Oh
674   1031  982   1     179.62   KANGLE ; Oh-Cah-Oh
674   1031  987   1     81.81    KANGLE ; Oh-Cah-Oh
674   1031  1032  1     82.00    KANGLE ; Oh-Cah-Oh
982   1031  987   1     98.36    KANGLE ; Oh-Cah-Oh
982   1031  1032  1     98.30    KANGLE ; Oh-Cah-Oh
987   1031  1032  1     98.70    KANGLE ; Oh-Cah-Oh
1031  1032  1033  1     110.00   125.52   ; Cah-Oh-H
1031  1032  1036  1     98.12    KANGLE ; Cah-Oh-Cah
1031  1032  1076  1     98.50    KANGLE ; Cah-Oh-Cah
1033  1032  1036  1     110.00   125.52   ; H-Oh-Cah
1033  1032  1076  1     110.00   125.52   ; H-Oh-Cah
1036  1032  1076  1     98.53    KANGLE ; Cah-Oh-Cah
1035  1034  1351  1     110.00   125.52   ; H-Oh-Cah
1035  1034  1391  1     110.00   125.52   ; H-Oh-Cah
1035  1034  1396  1     110.00   125.52   ; H-Oh-Cah
1351  1034  1391  1     98.53    KANGLE ; Cah-Oh-Cah
1351  1034  1396  1     98.40    KANGLE ; Cah-Oh-Cah
1391  1034  1396  1     98.22    KANGLE ; Cah-Oh-Cah
674   1036  679   1     98.12    KANGLE ; Oh-Cah-Oh
674   1036  719   1     98.35    KANGLE ; Oh-Cah-Oh
674   1036  992   1     81.73    KANGLE ; Oh-Cah-Oh
674   1036  1032  1     81.93    KANGLE ; Oh-Cah-Oh
674   1036  1037  1     179.76   KANGLE ; Oh-Cah-Oh
679   1036  719   1     98.01    KANGLE ; Oh-Cah-Oh
679   1036  992   1     81.65    KANGLE ; Oh-Cah-Oh
679   1036  1032  1     179.82   KANGLE ; Oh-Cah-Oh
679   1036  1037  1     81.65    KANGLE ; Oh-Cah-Oh
719   1036  992   1     179.66   KANGLE ; Oh-Cah-Oh
719   1036  1032  1     81.81    KANGLE ; Oh-Cah-Oh
719   1036  1037  1     81.61    KANGLE ; Oh-Cah-Oh
992   1036  1032  1     98.53    KANGLE ; Oh-Cah-Oh
992   1036  1037  1     98.32    KANGLE ; Oh-Cah-Oh
1032  1036  1037  1     98.30    KANGLE ; Oh-Cah-Oh
721   1037  726   1     98.42    KANGLE ; Cah-Oh-Cah
721   1037  1036  1     98.47    KANGLE ; Cah-Oh-Cah
721   1037  1038  1     110.00   125.52   ; Cah-Oh-H
726   1037  1036  1     98.44    KANGLE ; Cah-Oh-Cah
726   1037  1038  1     110.00   125.52   ; Cah-Oh-H
1036  1037  1038  1     110.00   125.52   ; Cah-Oh-H
1040  1039  1086  1     110.00   125.52   ; H-Oh-Cah
1040  1039  1396  1     110.00   125.52   ; H-Oh-Cah
1040  1039  1401  1     110.00   125.52   ; H-Oh-Cah
1086  1039  1396  1     98.47    KANGLE ; Cah-Oh-Cah
1086  1039  1401  1     98.50    KANGLE ; Cah-Oh-Cah
1396  1039  1401  1     98.36    KANGLE ; Cah-Oh-Cah
634   1041  679   1     98.24    KANGLE ; Oh-Cah-Oh
634   1041  684   1     98.24    KANGLE ; Oh-Cah-Oh
634   1041  992   1     81.85    KANGLE ; Oh-Cah-Oh
634   1041  997   1     81.82    KANGLE ; Oh-Cah-Oh
634   1041  1042  1     179.79   KANGLE ; Oh-Cah-Oh
679   1041  684   1     97.93    KANGLE ; Oh-Cah-Oh
679   1041  992   1     81.65    KANGLE ; Oh-Cah-Oh
679   1041  997   1     179.74   KANGLE ; Oh-Cah-Oh
679   1041  1042  1     81.62    KANGLE ; Oh-Cah-Oh
684   1041  992   1     179.58   KANGLE ; Oh-Cah-Oh
684   1041  997   1     81.81    KANGLE ; Oh-Cah-Oh
684   1041  1042  1     81.62    KANGLE ; Oh-Cah-Oh
992   1041  997   1     98.60    KANGLE ; Oh-Cah-Oh
992   1041  1042  1     98.29    KANGLE ; Oh-Cah-Oh
997   1041  1042  1     98.32    KANGLE ; Oh-Cah-Oh
726   1042  731   1     98.26    KANGLE ; Cah-Oh-Cah
726   1042  1041  1     98.47    KANGLE ; Cah-Oh-Cah
726   1042  1043  1     110.00   125.52   ; Cah-Oh-H
731   1042  1041  1     98.47    KANGLE ; Cah-Oh-Cah
731   1042  1043  1     110.00   125.52   ; Cah-Oh-H
1041  1042  1043  1     110.00   125.52   ; Cah-Oh-H
1045  1044  1091  1     110.00   125.52   ; H-Oh-Cah
1045  1044  1401  1     110.00   125.52   ; H-Oh-Cah
1045  1044  1406  1     110.00   125.52   ; H-Oh-Cah
1091  1044  1401  1     98.50    KANGLE ; Cah-Oh-Cah
1091  1044  1406  1     98.50    KANGLE ; Cah-Oh-Cah
1401  1044  1406  1     98.20    KANGLE ; Cah-Oh-Cah
639   1046  684   1     98.24    KANGLE ; Oh-Cah-Oh
639   1046  689   1     98.22    KANGLE ; Oh-Cah-Oh
639   1046  997   1     81.82    KANGLE ; Oh-Cah-Oh
639   1046  1002  1     81.82    KANGLE ; Oh-Cah-Oh
639   1046  1047  1     179.79   KANGLE ; Oh-Cah-Oh
684   1046  689   1     98.09    KANGLE ; Oh-Cah-Oh
684   1046  997   1     81.81    KANGLE ; Oh-Cah-Oh
684   1046  1002  1     179.74   KANGLE ; Oh-Cah-Oh
684   1046  1047  1     81.62    KANGLE ; Oh-Cah-Oh
689   1046  997   1     179.90   KANGLE ; Oh-Cah-Oh
689   1046  1002  1     81.65    KANGLE ; Oh-Cah-Oh
689   1046  1047  1     81.65    KANGLE ; Oh-Cah-Oh
997   1046  1002  1     98.45    KANGLE ; Oh-Cah-Oh
997   1046  1047  1     98.32    KANGLE ; Oh-Cah-Oh
1002  1046  1047  1     98.32    KANGLE ; Oh-Cah-Oh
731   1047  736   1     98.26    KANGLE ; Cah-Oh-Cah
731   1047  1046  1     98.47    KANGLE ; Cah-Oh-Cah
731   1047  1048  1     110.00   125.52   ; Cah-Oh-H
736   1047  1046  1     98.47    KANGLE ; Cah-Oh-Cah
736   1047  1048  1     110.00   125.52   ; Cah-Oh-H
1046  1047  1048  1     110.00   125.52   ; Cah-Oh-H
1050  1049  1096  1     110.00   125.52   ; H-Oh-Cah
1050  1049  1406  1     110.00   125.52   ; H-Oh-Cah
1050  1049  1411  1     110.00   125.52   ; H-Oh-Cah
1096  1049  1406  1     98.47    KANGLE ; Cah-Oh-Cah
1096  1049  1411  1     98.50    KANGLE ; Cah-Oh-Cah
1406  1049  1411  1     98.36    KANGLE ; Cah-Oh-Cah
644   1051  689   1     98.24    KANGLE ; Oh-Cah-Oh
644   1051  694   1     98.24    KANGLE ; Oh-Cah-Oh
644   1051  1002  1     81.85    KANGLE ; Oh-Cah-Oh
644   1051  1007  1     81.82    KANGLE ; Oh-Cah-Oh
644   1051  1052  1     179.79   KANGLE ; Oh-Cah-Oh
689   1051  694   1     97.93    KANGLE ; Oh-Cah-Oh
689   1051  1002  1     81.65    KANGLE ; Oh-Cah-Oh
689   1051  1007  1     179.74   KANGLE ; Oh-Cah-Oh
689   1051  1052  1     81.62    KANGLE ; Oh-Cah-Oh
694   1051  1002  1     179.58   KANGLE ; Oh-Cah-Oh
694   1051  1007  1     81.81    KANGLE ; Oh-Cah-Oh
694   1051  1052  1     81.62    KANGLE ; Oh-Cah-Oh
1002  1051  1007  1     98.60    KANGLE ; Oh-Cah-Oh
1002  1051  1052  1     98.29    KANGLE ; Oh-Cah-Oh
1007  1051  1052  1     98.32    KANGLE ; Oh-Cah-Oh
736   1052  741   1     98.42    KANGLE ; Cah-Oh-Cah
736   1052  1051  1     98.44    KANGLE ; Cah-Oh-Cah
736   1052  1053  1     110.00   125.52   ; Cah-Oh-H
741   1052  1051  1     98.47    KANGLE ; Cah-Oh-Cah
741   1052  1053  1     110.00   125.52   ; Cah-Oh-H
1051  1052  1053  1     110.00   125.52   ; Cah-Oh-H
1055  1054  1101  1     110.00   125.52   ; H-Oh-Cah
1055  1054  1411  1     110.00   125.52   ; H-Oh-Cah
1055  1054  1416  1     110.00   125.52   ; H-Oh-Cah
1101  1054  1411  1     98.50    KANGLE ; Cah-Oh-Cah
1101  1054  1416  1     98.50    KANGLE ; Cah-Oh-Cah
1411  1054  1416  1     98.20    KANGLE ; Cah-Oh-Cah
649   1056  694   1     98.24    KANGLE ; Oh-Cah-Oh
649   1056  699   1     98.22    KANGLE ; Oh-Cah-Oh
649   1056  1007  1     81.82    KANGLE ; Oh-Cah-Oh
649   1056  1012  1     81.82    KANGLE ; Oh-Cah-Oh
649   1056  1057  1     179.79   KANGLE ; Oh-Cah-Oh
694   1056  699   1     98.09    KANGLE ; Oh-Cah-Oh
694   1056  1007  1     81.81    KANGLE ; Oh-Cah-Oh
694   1056  1012  1     179.74   KANGLE ; Oh-Cah-Oh
694   1056  1057  1     81.62    KANGLE ; Oh-Cah-Oh
699   1056  1007  1     179.90   KANGLE ; Oh-Cah-Oh
699   1056  1012  1     81.65    KANGLE ; Oh-Cah-Oh
699   1056  1057  1     81.65    KANGLE ; Oh-Cah-Oh
1007  1056  1012  1     98.45    KANGLE ; Oh-Cah-Oh
1007  1056  1057  1     98.32    KANGLE ; Oh-Cah-Oh
1012  1056  1057  1     98.32    KANGLE ; Oh-Cah-Oh
741   1057  746   1     98.26    KANGLE ; Cah-Oh-Cah
741   1057  1056  1     98.47    KANGLE ; Cah-Oh-Cah
741   1057  1058  1     110.00   125.52   ; Cah-Oh-H
746   1057  1056  1     98.47    KANGLE ; Cah-Oh-Cah
746   1057  1058  1     110.00   125.52   ; Cah-Oh-H
1056  1057  1058  1     110.00   125.52   ; Cah-Oh-H
1060  1059  1106  1     110.00   125.52   ; H-Oh-Cah
1060  1059  1416  1     110.00   125.52   ; H-Oh-Cah
1060  1059  1421  1     110.00   125.52   ; H-Oh-Cah
1106  1059  1416  1     98.28    KANGLE ; Cah-Oh-Cah
1106  1059  1421  1     98.68    KANGLE ; Cah-Oh-Cah
1416  1059  1421  1     98.36    KANGLE ; Cah-Oh-Cah
654   1061  699   1     98.24    KANGLE ; Oh-Cah-Oh
654   1061  704   1     98.24    KANGLE ; Oh-Cah-Oh
654   1061  1012  1     81.85    KANGLE ; Oh-Cah-Oh
654   1061  1017  1     81.82    KANGLE ; Oh-Cah-Oh
654   1061  1062  1     179.79   KANGLE ; Oh-Cah-Oh
699   1061  704   1     97.93    KANGLE ; Oh-Cah-Oh
699   1061  1012  1     81.65    KANGLE ; Oh-Cah-Oh
699   1061  1017  1     179.74   KANGLE ; Oh-Cah-Oh
699   1061  1062  1     81.62    KANGLE ; Oh-Cah-Oh
704   1061  1012  1     179.58   KANGLE ; Oh-Cah-Oh
704   1061  1017  1     81.81    KANGLE ; Oh-Cah-Oh
704   1061  1062  1     81.62    KANGLE ; Oh-Cah-Oh
1012  1061  1017  1     98.60    KANGLE ; Oh-Cah-Oh
1012  1061  1062  1     98.29    KANGLE ; Oh-Cah-Oh
1017  1061  1062  1     98.32    KANGLE ; Oh-Cah-Oh
746   1062  751   1     98.42    KANGLE ; Cah-Oh-Cah
746   1062  1061  1     98.44    KANGLE ; Cah-Oh-Cah
746   1062  1063  1     110.00   125.52   ; Cah-Oh-H
751   1062  1061  1     98.47    KANGLE ; Cah-Oh-Cah
751   1062  1063  1     110.00   125.52   ; Cah-Oh-H
1061  1062  1063  1     110.00   125.52   ; Cah-Oh-H
1065  1064  1111  1     110.00   125.52   ; H-Oh-Cah
1065  1064  1421  1     110.00   125.52   ; H-Oh-Cah
1065  1064  1426  1     110.00   125.52   ; H-Oh-Cah
1111  1064  1421  1     98.50    KANGLE ; Cah-Oh-Cah
1111  1064  1426  1     98.50    KANGLE ; Cah-Oh-Cah
1421  1064  1426  1     98.20    KANGLE ; Cah-Oh-Cah
659   1066  704   1     98.24    KANGLE ; Oh-Cah-Oh
659   1066  709   1     98.22    KANGLE ; Oh-Cah-Oh
659   1066  1017  1     81.82    KANGLE ; Oh-Cah-Oh
659   1066  1022  1     81.82    KANGLE ; Oh-Cah-Oh
659   1066  1067  1     179.79   KANGLE ; Oh-Cah-Oh
704   1066  709   1     98.09    KANGLE ; Oh-Cah-Oh
704   1066  1017  1     81.81    KANGLE ; Oh-Cah-Oh
704   1066  1022  1     179.74   KANGLE ; Oh-Cah-Oh
704   1066  1067  1     81.62    KANGLE ; Oh-Cah-Oh
709   1066  1017  1     179.90   KANGLE ; Oh-Cah-Oh
709   1066  1022  1     81.65    KANGLE ; Oh-Cah-Oh
709   1066  1067  1     81.65    KANGLE ; Oh-Cah-Oh
1017  1066  1022  1     98.45    KANGLE ; Oh-Cah-Oh
1017  1066  1067  1     98.32    KANGLE ; Oh-Cah-Oh
1022  1066  1067  1     98.32    KANGLE ; Oh-Cah-Oh
751   1067  756   1     98.42    KANGLE ; Cah-Oh-Cah
751   1067  1066  1     98.47    KANGLE ; Cah-Oh-Cah
751   1067  1068  1     110.00   125.52   ; Cah-Oh-H
756   1067  1066  1     98.44    KANGLE ; Cah-Oh-Cah
756   1067  1068  1     110.00   125.52   ; Cah-Oh-H
1066  1067  1068  1     110.00   125.52   ; Cah-Oh-H
1070  1069  1116  1     110.00   125.52   ; H-Oh-Cah
1070  1069  1426  1     110.00   125.52   ; H-Oh-Cah
1070  1069  1431  1     110.00   125.52   ; H-Oh-Cah
1116  1069  1426  1     98.47    KANGLE ; Cah-Oh-Cah
1116  1069  1431  1     98.50    KANGLE ; Cah-Oh-Cah
1426  1069  1431  1     98.36    KANGLE ; Cah-Oh-Cah
664   1071  709   1     98.24    KANGLE ; Oh-Cah-Oh
664   1071  714   1     98.24    KANGLE ; Oh-Cah-Oh
664   1071  1022  1     81.85    KANGLE ; Oh-Cah-Oh
664   1071  1027  1     81.82    KANGLE ; Oh-Cah-Oh
664   1071  1072  1     179.79   KANGLE ; Oh-Cah-Oh
709   1071  714   1     97.93    KANGLE ; Oh-Cah-Oh
709   1071  1022  1     81.65    KANGLE ; Oh-Cah-Oh
709   1071  1027  1     179.74   KANGLE ; Oh-Cah-Oh
709   1071  1072  1     81.62    KANGLE ; Oh-Cah-Oh
714   1071  1022  1     179.58   KANGLE ; Oh-Cah-Oh
714   1071  1027  1     81.81    KANGLE ; Oh-Cah-Oh
714   1071  1072  1     81.62    KANGLE ; Oh-Cah-Oh
1022  1071  1027  1     98.60    KANGLE ; Oh-Cah-Oh
1022  1071  1072  1     98.29    KANGLE ; Oh-Cah-Oh
1027  1071  1072  1     98.32    KANGLE ; Oh-Cah-Oh
756   1072  761   1     98.26    KANGLE ; Cah-Oh-Cah
756   1072  1071  1     98.47    KANGLE ; Cah-Oh-Cah
756   1072  1073  1     110.00   125.52   ; Cah-Oh-H
761   1072  1071  1     98.47    KANGLE ; Cah-Oh-Cah
761   1072  1073  1     110.00   125.52   ; Cah-Oh-H
1071  1072  1073  1     110.00   125.52   ; Cah-Oh-H
1075  1074  1121  1     110.00   125.52   ; H-Oh-Cah
1075  1074  1431  1     110.00   125.52   ; H-Oh-Cah
1075  1074  1436  1     110.00   125.52   ; H-Oh-Cah
1121  1074  1431  1     98.50    KANGLE ; Cah-Oh-Cah
1121  1074  1436  1     98.50    KANGLE ; Cah-Oh-Cah
1431  1074  1436  1     98.20    KANGLE ; Cah-Oh-Cah
669   1076  714   1     98.24    KANGLE ; Oh-Cah-Oh
669   1076  719   1     98.22    KANGLE ; Oh-Cah-Oh
669   1076  1027  1     81.82    KANGLE ; Oh-Cah-Oh
669   1076  1032  1     81.82    KANGLE ; Oh-Cah-Oh
669   1076  1077  1     179.79   KANGLE ; Oh-Cah-Oh
714   1076  719   1     98.09    KANGLE ; Oh-Cah-Oh
714   1076  1027  1     81.81    KANGLE ; Oh-Cah-Oh
714   1076  1032  1     179.74   KANGLE ; Oh-Cah-Oh
714   1076  1077  1     81.62    KANGLE ; Oh-Cah-Oh
719   1076  1027  1     179.90   KANGLE ; Oh-Cah-Oh
719   1076  1032  1     81.65    KANGLE ; Oh-Cah-Oh
719   1076  1077  1     81.65    KANGLE ; Oh-Cah-Oh
1027  1076  1032  1     98.45    KANGLE ; Oh-Cah-Oh
1027  1076  1077  1     98.32    KANGLE ; Oh-Cah-Oh
1032  1076  1077  1     98.32    KANGLE ; Oh-Cah-Oh
721   1077  761   1     98.34    KANGLE ; Cah-Oh-Cah
721   1077  1076  1     98.45    KANGLE ; Cah-Oh-Cah
721   1077  1078  1     110.00   125.52   ; Cah-Oh-H
761   1077  1076  1     98.47    KANGLE ; Cah-Oh-Cah
761   1077  1078  1     110.00   125.52   ; Cah-Oh-H
1076  1077  1078  1     110.00   125.52   ; Cah-Oh-H
1080  1079  1081  1     110.00   125.52   ; H-Oh-Cah
1080  1079  1396  1     110.00   125.52   ; H-Oh-Cah
1080  1079  1436  1     110.00   125.52   ; H-Oh-Cah
1081  1079  1396  1     98.60    KANGLE ; Cah-Oh-Cah
1081  1079  1436  1     98.38    KANGLE ; Cah-Oh-Cah
1396  1079  1436  1     98.28    KANGLE ; Cah-Oh-Cah
724   1081  764   1     98.28    KANGLE ; Oh-Cah-Oh
724   1081  1079  1     98.40    KANGLE ; Oh-Cah-Oh
724   1081  1082  1     81.62    KANGLE ; Oh-Cah-Oh
724   1081  1397  1     81.90    KANGLE ; Oh-Cah-Oh
724   1081  1437  1     179.79   KANGLE ; Oh-Cah-Oh
764   1081  1079  1     98.58    KANGLE ; Oh-Cah-Oh
764   1081  1082  1     81.63    KANGLE ; Oh-Cah-Oh
764   1081  1397  1     179.72   KANGLE ; Oh-Cah-Oh
764   1081  1437  1     81.75    KANGLE ; Oh-Cah-Oh
1079  1081  1082  1     179.78   KANGLE ; Oh-Cah-Oh
1079  1081  1397  1     81.59    KANGLE ; Oh-Cah-Oh
1079  1081  1437  1     81.79    KANGLE ; Oh-Cah-Oh
1082  1081  1397  1     98.19    KANGLE ; Oh-Cah-Oh
1082  1081  1437  1     98.18    KANGLE ; Oh-Cah-Oh
1397  1081  1437  1     98.07    KANGLE ; Oh-Cah-Oh
1081  1082  1083  1     110.00   125.52   ; Cah-Oh-H
1081  1082  1126  1     98.04    KANGLE ; Cah-Oh-Cah
1081  1082  1131  1     98.04    KANGLE ; Cah-Oh-Cah
1083  1082  1126  1     110.00   125.52   ; H-Oh-Cah
1083  1082  1131  1     110.00   125.52   ; H-Oh-Cah
1126  1082  1131  1     98.17    KANGLE ; Cah-Oh-Cah
1085  1084  1441  1     110.00   125.52   ; H-Oh-Cah
1085  1084  1446  1     110.00   125.52   ; H-Oh-Cah
1085  1084  1491  1     110.00   125.52   ; H-Oh-Cah
1441  1084  1446  1     98.09    KANGLE ; Cah-Oh-Cah
1441  1084  1491  1     98.17    KANGLE ; Cah-Oh-Cah
1446  1084  1491  1     98.14    KANGLE ; Cah-Oh-Cah
724   1086  729   1     98.36    KANGLE ; Oh-Cah-Oh
724   1086  1039  1     98.47    KANGLE ; Oh-Cah-Oh
724   1086  1087  1     81.46    KANGLE ; Oh-Cah-Oh
724   1086  1397  1     81.59    KANGLE ; Oh-Cah-Oh
724   1086  1402  1     179.67   KANGLE ; Oh-Cah-Oh
729   1086  1039  1     98.50    KANGLE ; Oh-Cah-Oh
729   1086  1087  1     81.81    KANGLE ; Oh-Cah-Oh
729   1086  1397  1     179.79   KANGLE ; Oh-Cah-Oh
729   1086  1402  1     81.90    KANGLE ; Oh-Cah-Oh
1039  1086  1087  1     179.70   KANGLE ; Oh-Cah-Oh
1039  1086  1397  1     81.71    KANGLE ; Oh-Cah-Oh
1039  1086  1402  1     81.69    KANGLE ; Oh-Cah-Oh
1087  1086  1397  1     97.98    KANGLE ; Oh-Cah-Oh
1087  1086  1402  1     98.38    KANGLE ; Oh-Cah-Oh
1397  1086  1402  1     98.15    KANGLE ; Oh-Cah-Oh
1086  1087  1088  1     110.00   125.52   ; Cah-Oh-H
1086  1087  1131  1     98.23    KANGLE ; Cah-Oh-Cah
1086  1087  1136  1     97.83    KANGLE ; Cah-Oh-Cah
1088  1087  1131  1     110.00   125.52   ; H-Oh-Cah
1088  1087  1136  1     110.00   125.52   ; H-Oh-Cah
1131  1087  1136  1     98.33    KANGLE ; Cah-Oh-Cah
1090  1089  1446  1     110.00   125.52   ; H-Oh-Cah
1090  1089  1451  1     110.00   125.52   ; H-Oh-Cah
1090  1089  1496  1     110.00   125.52   ; H-Oh-Cah
1446  1089  1451  1     97.93    KANGLE ; Cah-Oh-Cah
1446  1089  1496  1     98.17    KANGLE ; Cah-Oh-Cah
1451  1089  1496  1     98.17    KANGLE ; Cah-Oh-Cah
729   1091  734   1     98.20    KANGLE ; Oh-Cah-Oh
729   1091  1044  1     98.50    KANGLE ; Oh-Cah-Oh
729   1091  1092  1     81.62    KANGLE ; Oh-Cah-Oh
729   1091  1402  1     81.90    KANGLE ; Oh-Cah-Oh
729   1091  1407  1     179.77   KANGLE ; Oh-Cah-Oh
734   1091  1044  1     98.50    KANGLE ; Oh-Cah-Oh
734   1091  1092  1     81.62    KANGLE ; Oh-Cah-Oh
734   1091  1402  1     179.77   KANGLE ; Oh-Cah-Oh
734   1091  1407  1     81.90    KANGLE ; Oh-Cah-Oh
1044  1091  1092  1     179.82   KANGLE ; Oh-Cah-Oh
1044  1091  1402  1     81.69    KANGLE ; Oh-Cah-Oh
1044  1091  1407  1     81.69    KANGLE ; Oh-Cah-Oh
1092  1091  1402  1     98.19    KANGLE ; Oh-Cah-Oh
1092  1091  1407  1     98.19    KANGLE ; Oh-Cah-Oh
1402  1091  1407  1     97.99    KANGLE ; Oh-Cah-Oh
1091  1092  1093  1     110.00   125.52   ; Cah-Oh-H
1091  1092  1136  1     98.04    KANGLE ; Cah-Oh-Cah
1091  1092  1141  1     98.04    KANGLE ; Cah-Oh-Cah
1093  1092  1136  1     110.00   125.52   ; H-Oh-Cah
1093  1092  1141  1     110.00   125.52   ; H-Oh-Cah
1136  1092  1141  1     98.17    KANGLE ; Cah-Oh-Cah
1095  1094  1451  1     110.00   125.52   ; H-Oh-Cah
1095  1094  1456  1     110.00   125.52   ; H-Oh-Cah
1095  1094  1501  1     110.00   125.52   ; H-Oh-Cah
1451  1094  1456  1     98.09    KANGLE ; Cah-Oh-Cah
1451  1094  1501  1     98.17    KANGLE ; Cah-Oh-Cah
1456  1094  1501  1     98.14    KANGLE ; Cah-Oh-Cah
734   1096  739   1     98.36    KANGLE ; Oh-Cah-Oh
734   1096  1049  1     98.47    KANGLE ; Oh-Cah-Oh
734   1096  1097  1     81.46    KANGLE ; Oh-Cah-Oh
734   1096  1407  1     81.59    KANGLE ; Oh-Cah-Oh
734   1096  1412  1     179.67   KANGLE ; Oh-Cah-Oh
739   1096  1049  1     98.50    KANGLE ; Oh-Cah-Oh
739   1096  1097  1     81.81    KANGLE ; Oh-Cah-Oh
739   1096  1407  1     179.79   KANGLE ; Oh-Cah-Oh
739   1096  1412  1     81.90    KANGLE ; Oh-Cah-Oh
1049  1096  1097  1     179.70   KANGLE ; Oh-Cah-Oh
1049  1096  1407  1     81.71    KANGLE ; Oh-Cah-Oh
1049  1096  1412  1     81.69    KANGLE ; Oh-Cah-Oh
1097  1096  1407  1     97.98    KANGLE ; Oh-Cah-Oh
1097  1096  1412  1     98.38    KANGLE ; Oh-Cah-Oh
1407  1096  1412  1     98.15    KANGLE ; Oh-Cah-Oh
1096  1097  1098  1     110.00   125.52   ; Cah-Oh-H
1096  1097  1141  1     98.23    KANGLE ; Cah-Oh-Cah
1096  1097  1146  1     97.83    KANGLE ; Cah-Oh-Cah
1098  1097  1141  1     110.00   125.52   ; H-Oh-Cah
1098  1097  1146  1     110.00   125.52   ; H-Oh-Cah
1141  1097  1146  1     98.33    KANGLE ; Cah-Oh-Cah
1100  1099  1456  1     110.00   125.52   ; H-Oh-Cah
1100  1099  1461  1     110.00   125.52   ; H-Oh-Cah
1100  1099  1506  1     110.00   125.52   ; H-Oh-Cah
1456  1099  1461  1     97.93    KANGLE ; Cah-Oh-Cah
1456  1099  1506  1     98.17    KANGLE ; Cah-Oh-Cah
1461  1099  1506  1     98.17    KANGLE ; Cah-Oh-Cah
739   1101  744   1     98.20    KANGLE ; Oh-Cah-Oh
739   1101  1054  1     98.50    KANGLE ; Oh-Cah-Oh
739   1101  1102  1     81.62    KANGLE ; Oh-Cah-Oh
739   1101  1412  1     81.90    KANGLE ; Oh-Cah-Oh
739   1101  1417  1     179.77   KANGLE ; Oh-Cah-Oh
744   1101  1054  1     98.50    KANGLE ; Oh-Cah-Oh
744   1101  1102  1     81.62    KANGLE ; Oh-Cah-Oh
744   1101  1412  1     179.77   KANGLE ; Oh-Cah-Oh
744   1101  1417  1     81.90    KANGLE ; Oh-Cah-Oh
1054  1101  1102  1     179.82   KANGLE ; Oh-Cah-Oh
1054  1101  1412  1     81.69    KANGLE ; Oh-Cah-Oh
1054  1101  1417  1     81.69    KANGLE ; Oh-Cah-Oh
1102  1101  1412  1     98.19    KANGLE ; Oh-Cah-Oh
1102  1101  1417  1     98.19    KANGLE ; Oh-Cah-Oh
1412  1101  1417  1     97.99    KANGLE ; Oh-Cah-Oh
1101  1102  1103  1     110.00   125.52   ; Cah-Oh-H
1101  1102  1146  1     98.04    KANGLE ; Cah-Oh-Cah
1101  1102  1151  1     98.04    KANGLE ; Cah-Oh-Cah
1103  1102  1146  1     110.00   125.52   ; H-Oh-Cah
1103  1102  1151  1     110.00   125.52   ; H-Oh-Cah
1146  1102  1151  1     98.17    KANGLE ; Cah-Oh-Cah
1105  1104  1461  1     110.00   125.52   ; H-Oh-Cah
1105  1104  1466  1     110.00   125.52   ; H-Oh-Cah
1105  1104  1511  1     110.00   125.52   ; H-Oh-Cah
1461  1104  1466  1     97.93    KANGLE ; Cah-Oh-Cah
1461  1104  1511  1     98.17    KANGLE ; Cah-Oh-Cah
1466  1104  1511  1     98.17    KANGLE ; Cah-Oh-Cah
744   1106  749   1     98.36    KANGLE ; Oh-Cah-Oh
744   1106  1059  1     98.68    KANGLE ; Oh-Cah-Oh
744   1106  1107  1     81.62    KANGLE ; Oh-Cah-Oh
744   1106  1417  1     81.90    KANGLE ; Oh-Cah-Oh
744   1106  1422  1     179.79   KANGLE ; Oh-Cah-Oh
749   1106  1059  1     98.28    KANGLE ; Oh-Cah-Oh
749   1106  1107  1     81.65    KANGLE ; Oh-Cah-Oh
749   1106  1417  1     179.67   KANGLE ; Oh-Cah-Oh
749   1106  1422  1     81.59    KANGLE ; Oh-Cah-Oh
1059  1106  1107  1     179.70   KANGLE ; Oh-Cah-Oh
1059  1106  1417  1     81.87    KANGLE ; Oh-Cah-Oh
1059  1106  1422  1     81.53    KANGLE ; Oh-Cah-Oh
1107  1106  1417  1     98.19    KANGLE ; Oh-Cah-Oh
1107  1106  1422  1     98.17    KANGLE ; Oh-Cah-Oh
1417  1106  1422  1     98.15    KANGLE ; Oh-Cah-Oh
1106  1107  1108  1     110.00   125.52   ; Cah-Oh-H
1106  1107  1151  1     98.04    KANGLE ; Cah-Oh-Cah
1106  1107  1156  1     98.02    KANGLE ; Cah-Oh-Cah
1108  1107  1151  1     110.00   125.52   ; H-Oh-Cah
1108  1107  1156  1     110.00   125.52   ; H-Oh-Cah
1151  1107  1156  1     98.33    KANGLE ; Cah-Oh-Cah
1110  1109  1466  1     110.00   125.52   ; H-Oh-Cah
1110  1109  1471  1     110.00   125.52   ; H-Oh-Cah
1110  1109  1516  1     110.00   125.52   ; H-Oh-Cah
1466  1109  1471  1     98.09    KANGLE ; Cah-Oh-Cah
1466  1109  1516  1     98.14    KANGLE ; Cah-Oh-Cah
1471  1109  1516  1     98.17    KANGLE ; Cah-Oh-Cah
749   1111  754   1     98.20    KANGLE ; Oh-Cah-Oh
749   1111  1064  1     98.50    KANGLE ; Oh-Cah-Oh
749   1111  1112  1     81.62    KANGLE ; Oh-Cah-Oh
749   1111  1422  1     81.90    KANGLE ; Oh-Cah-Oh
749   1111  1427  1     179.77   KANGLE ; Oh-Cah-Oh
754   1111  1064  1     98.50    KANGLE ; Oh-Cah-Oh
754   1111  1112  1     81.62    KANGLE ; Oh-Cah-Oh
754   1111  1422  1     179.77   KANGLE ; Oh-Cah-Oh
754   1111  1427  1     81.90    KANGLE ; Oh-Cah-Oh
1064  1111  1112  1     179.82   KANGLE ; Oh-Cah-Oh
1064  1111  1422  1     81.69    KANGLE ; Oh-Cah-Oh
1064  1111  1427  1     81.69    KANGLE ; Oh-Cah-Oh
1112  1111  1422  1     98.19    KANGLE ; Oh-Cah-Oh
1112  1111  1427  1     98.19    KANGLE ; Oh-Cah-Oh
1422  1111  1427  1     97.99    KANGLE ; Oh-Cah-Oh
1111  1112  1113  1     110.00   125.52   ; Cah-Oh-H
1111  1112  1156  1     98.04    KANGLE ; Cah-Oh-Cah
1111  1112  1161  1     98.04    KANGLE ; Cah-Oh-Cah
1113  1112  1156  1     110.00   125.52   ; H-Oh-Cah
1113  1112  1161  1     110.00   125.52   ; H-Oh-Cah
1156  1112  1161  1     98.17    KANGLE ; Cah-Oh-Cah
1115  1114  1471  1     110.00   125.52   ; H-Oh-Cah
1115  1114  1476  1     110.00   125.52   ; H-Oh-Cah
1115  1114  1521  1     110.00   125.52   ; H-Oh-Cah
1471  1114  1476  1     98.09    KANGLE ; Cah-Oh-Cah
1471  1114  1521  1     98.17    KANGLE ; Cah-Oh-Cah
1476  1114  1521  1     98.14    KANGLE ; Cah-Oh-Cah
754   1116  759   1     98.36    KANGLE ; Oh-Cah-Oh
754   1116  1069  1     98.47    KANGLE ; Oh-Cah-Oh
754   1116  1117  1     81.46    KANGLE ; Oh-Cah-Oh
754   1116  1427  1     81.59    KANGLE ; Oh-Cah-Oh
754   1116  1432  1     179.67   KANGLE ; Oh-Cah-Oh
759   1116  1069  1     98.50    KANGLE ; Oh-Cah-Oh
759   1116  1117  1     81.81    KANGLE ; Oh-Cah-Oh
759   1116  1427  1     179.79   KANGLE ; Oh-Cah-Oh
759   1116  1432  1     81.90    KANGLE ; Oh-Cah-Oh
1069  1116  1117  1     179.70   KANGLE ; Oh-Cah-Oh
1069  1116  1427  1     81.71    KANGLE ; Oh-Cah-Oh
1069  1116  1432  1     81.69    KANGLE ; Oh-Cah-Oh
1117  1116  1427  1     97.98    KANGLE ; Oh-Cah-Oh
1117  1116  1432  1     98.38    KANGLE ; Oh-Cah-Oh
1427  1116  1432  1     98.15    KANGLE ; Oh-Cah-Oh
1116  1117  1118  1     110.00   125.52   ; Cah-Oh-H
1116  1117  1161  1     98.23    KANGLE ; Cah-Oh-Cah
1116  1117  1166  1     97.83    KANGLE ; Cah-Oh-Cah
1118  1117  1161  1     110.00   125.52   ; H-Oh-Cah
1118  1117  1166  1     110.00   125.52   ; H-Oh-Cah
1161  1117  1166  1     98.33    KANGLE ; Cah-Oh-Cah
1120  1119  1476  1     110.00   125.52   ; H-Oh-Cah
1120  1119  1481  1     110.00   125.52   ; H-Oh-Cah
1120  1119  1526  1     110.00   125.52   ; H-Oh-Cah
1476  1119  1481  1     97.93    KANGLE ; Cah-Oh-Cah
1476  1119  1526  1     98.17    KANGLE ; Cah-Oh-Cah
1481  1119  1526  1     98.17    KANGLE ; Cah-Oh-Cah
759   1121  764   1     98.20    KANGLE ; Oh-Cah-Oh
759   1121  1074  1     98.50    KANGLE ; Oh-Cah-Oh
759   1121  1122  1     81.62    KANGLE ; Oh-Cah-Oh
759   1121  1432  1     81.90    KANGLE ; Oh-Cah-Oh
759   1121  1437  1     179.77   KANGLE ; Oh-Cah-Oh
764   1121  1074  1     98.50    KANGLE ; Oh-Cah-Oh
764   1121  1122  1     81.62    KANGLE ; Oh-Cah-Oh
764   1121  1432  1     179.77   KANGLE ; Oh-Cah-Oh
764   1121  1437  1     81.90    KANGLE ; Oh-Cah-Oh
1074  1121  1122  1     179.82   KANGLE ; Oh-Cah-Oh
1074  1121  1432  1     81.69    KANGLE ; Oh-Cah-Oh
1074  1121  1437  1     81.69    KANGLE ; Oh-Cah-Oh
1122  1121  1432  1     98.19    KANGLE ; Oh-Cah-Oh
1122  1121  1437  1     98.19    KANGLE ; Oh-Cah-Oh
1432  1121  1437  1     97.99    KANGLE ; Oh-Cah-Oh
1121  1122  1123  1     110.00   125.52   ; Cah-Oh-H
1121  1122  1126  1     98.03    KANGLE ; Cah-Oh-Cah
1121  1122  1166  1     98.04    KANGLE ; Cah-Oh-Cah
1123  1122  1126  1     110.00   125.52   ; H-Oh-Cah
1123  1122  1166  1     110.00   125.52   ; H-Oh-Cah
1126  1122  1166  1     98.25    KANGLE ; Cah-Oh-Cah
1125  1124  1441  1     110.00   125.52   ; H-Oh-Cah
1125  1124  1481  1     110.00   125.52   ; H-Oh-Cah
1125  1124  1486  1     110.00   125.52   ; H-Oh-Cah
1441  1124  1481  1     98.01    KANGLE ; Cah-Oh-Cah
1441  1124  1486  1     98.06    KANGLE ; Cah-Oh-Cah
1481  1124  1486  1     98.26    KANGLE ; Cah-Oh-Cah
764   1126  769   1     98.53    KANGLE ; Oh-Cah-Oh
764   1126  809   1     98.33    KANGLE ; Oh-Cah-Oh
764   1126  1082  1     81.99    KANGLE ; Oh-Cah-Oh
764   1126  1122  1     81.82    KANGLE ; Oh-Cah-Oh
764   1126  1127  1     179.85   KANGLE ; Oh-Cah-Oh
769   1126  809   1     98.28    KANGLE ; Oh-Cah-Oh
769   1126  1082  1     81.81    KANGLE ; Oh-Cah-Oh
769   1126  1122  1     179.65   KANGLE ; Oh-Cah-Oh
769   1126  1127  1     81.62    KANGLE ; Oh-Cah-Oh
809   1126  1082  1     179.65   KANGLE ; Oh-Cah-Oh
809   1126  1122  1     81.65    KANGLE ; Oh-Cah-Oh
809   1126  1127  1     81.63    KANGLE ; Oh-Cah-Oh
1082  1126  1122  1     98.25    KANGLE ; Oh-Cah-Oh
1082  1126  1127  1     98.04    KANGLE ; Oh-Cah-Oh
1122  1126  1127  1     98.03    KANGLE ; Oh-Cah-Oh
1126  1127  1128  1     110.00   125.52   ; Cah-Oh-H
1126  1127  1171  1     98.24    KANGLE ; Cah-Oh-Cah
1126  1127  1176  1     98.24    KANGLE ; Cah-Oh-Cah
1128  1127  1171  1     110.00   125.52   ; H-Oh-Cah
1128  1127  1176  1     110.00   125.52   ; H-Oh-Cah
1171  1127  1176  1     97.93    KANGLE ; Cah-Oh-Cah
1130  1129  1486  1     110.00   125.52   ; H-Oh-Cah
1130  1129  1491  1     110.00   125.52   ; H-Oh-Cah
1130  1129  1536  1     110.00   125.52   ; H-Oh-Cah
1486  1129  1491  1     97.93    KANGLE ; Cah-Oh-Cah
1486  1129  1536  1     98.24    KANGLE ; Cah-Oh-Cah
1491  1129  1536  1     98.24    KANGLE ; Cah-Oh-Cah
724   1131  769   1     98.44    KANGLE ; Oh-Cah-Oh
724   1131  774   1     98.41    KANGLE ; Oh-Cah-Oh
724   1131  1082  1     81.90    KANGLE ; Oh-Cah-Oh
724   1131  1087  1     81.90    KANGLE ; Oh-Cah-Oh
724   1131  1132  1     179.91   KANGLE ; Oh-Cah-Oh
769   1131  774   1     98.36    KANGLE ; Oh-Cah-Oh
769   1131  1082  1     81.81    KANGLE ; Oh-Cah-Oh
769   1131  1087  1     179.66   KANGLE ; Oh-Cah-Oh
769   1131  1132  1     81.62    KANGLE ; Oh-Cah-Oh
774   1131  1082  1     179.62   KANGLE ; Oh-Cah-Oh
774   1131  1087  1     81.65    KANGLE ; Oh-Cah-Oh
774   1131  1132  1     81.65    KANGLE ; Oh-Cah-Oh
1082  1131  1087  1     98.17    KANGLE ; Oh-Cah-Oh
1082  1131  1132  1     98.04    KANGLE ; Oh-Cah-Oh
1087  1131  1132  1     98.04    KANGLE ; Oh-Cah-Oh
1131  1132  1133  1     110.00   125.52   ; Cah-Oh-H
1131  1132  1176  1     98.24    KANGLE ; Cah-Oh-Cah
1131  1132  1181  1     98.22    KANGLE ; Cah-Oh-Cah
1133  1132  1176  1     110.00   125.52   ; H-Oh-Cah
1133  1132  1181  1     110.00   125.52   ; H-Oh-Cah
1176  1132  1181  1     98.09    KANGLE ; Cah-Oh-Cah
1135  1134  1491  1     110.00   125.52   ; H-Oh-Cah
1135  1134  1496  1     110.00   125.52   ; H-Oh-Cah
1135  1134  1541  1     110.00   125.52   ; H-Oh-Cah
1491  1134  1496  1     98.09    KANGLE ; Cah-Oh-Cah
1491  1134  1541  1     98.22    KANGLE ; Cah-Oh-Cah
1496  1134  1541  1     98.24    KANGLE ; Cah-Oh-Cah
729   1136  774   1     98.44    KANGLE ; Oh-Cah-Oh
729   1136  779   1     98.44    KANGLE ; Oh-Cah-Oh
729   1136  1087  1     81.92    KANGLE ; Oh-Cah-Oh
729   1136  1092  1     81.90    KANGLE ; Oh-Cah-Oh
729   1136  1137  1     179.91   KANGLE ; Oh-Cah-Oh
774   1136  779   1     98.20    KANGLE ; Oh-Cah-Oh
774   1136  1087  1     81.65    KANGLE ; Oh-Cah-Oh
774   1136  1092  1     179.66   KANGLE ; Oh-Cah-Oh
774   1136  1137  1     81.62    KANGLE ; Oh-Cah-Oh
779   1136  1087  1     179.63   KANGLE ; Oh-Cah-Oh
779   1136  1092  1     81.81    KANGLE ; Oh-Cah-Oh
779   1136  1137  1     81.62    KANGLE ; Oh-Cah-Oh
1087  1136  1092  1     98.33    KANGLE ; Oh-Cah-Oh
1087  1136  1137  1     98.02    KANGLE ; Oh-Cah-Oh
1092  1136  1137  1     98.04    KANGLE ; Oh-Cah-Oh
1136  1137  1138  1     110.00   125.52   ; Cah-Oh-H
1136  1137  1181  1     98.24    KANGLE ; Cah-Oh-Cah
1136  1137  1186  1     98.24    KANGLE ; Cah-Oh-Cah
1138  1137  1181  1     110.00   125.52   ; H-Oh-Cah
1138  1137  1186  1     110.00   125.52   ; H-Oh-Cah
1181  1137  1186  1     97.93    KANGLE ; Cah-Oh-Cah
1140  1139  1496  1     110.00   125.52   ; H-Oh-Cah
1140  1139  1501  1     110.00   125.52   ; H-Oh-Cah
1140  1139  1546  1     110.00   125.52   ; H-Oh-Cah
1496  1139  1501  1     97.93    KANGLE ; Cah-Oh-Cah
1496  1139  1546  1     98.24    KANGLE ; Cah-Oh-Cah
1501  1139  1546  1     98.24    KANGLE ; Cah-Oh-Cah
734   1141  779   1     98.44    KANGLE ; Oh-Cah-Oh
734   1141  784   1     98.41    KANGLE ; Oh-Cah-Oh
734   1141  1092  1     81.90    KANGLE ; Oh-Cah-Oh
734   1141  1097  1     81.90    KANGLE ; Oh-Cah-Oh
734   1141  1142  1     179.91   KANGLE ; Oh-Cah-Oh
779   1141  784   1     98.36    KANGLE ; Oh-Cah-Oh
779   1141  1092  1     81.81    KANGLE ; Oh-Cah-Oh
779   1141  1097  1     179.66   KANGLE ; Oh-Cah-Oh
779   1141  1142  1     81.62    KANGLE ; Oh-Cah-Oh
784   1141  1092  1     179.62   KANGLE ; Oh-Cah-Oh
784   1141  1097  1     81.65    KANGLE ; Oh-Cah-Oh
784   1141  1142  1     81.65    KANGLE ; Oh-Cah-Oh
1092  1141  1097  1     98.17    KANGLE ; Oh-Cah-Oh
1092  1141  1142  1     98.04    KANGLE ; Oh-Cah-Oh
1097  1141  1142  1     98.04    KANGLE ; Oh-Cah-Oh
1141  1142  1143  1     110.00   125.52   ; Cah-Oh-H
1141  1142  1186  1     98.24    KANGLE ; Cah-Oh-Cah
1141  1142  1191  1     98.22    KANGLE ; Cah-Oh-Cah
1143  1142  1186  1     110.00   125.52   ; H-Oh-Cah
1143  1142  1191  1     110.00   125.52   ; H-Oh-Cah
1186  1142  1191  1     98.09    KANGLE ; Cah-Oh-Cah
1145  1144  1501  1     110.00   125.52   ; H-Oh-Cah
1145  1144  1506  1     110.00   125.52   ; H-Oh-Cah
1145  1144  1551  1     110.00   125.52   ; H-Oh-Cah
1501  1144  1506  1     98.09    KANGLE ; Cah-Oh-Cah
1501  1144  1551  1     98.22    KANGLE ; Cah-Oh-Cah
1506  1144  1551  1     98.24    KANGLE ; Cah-Oh-Cah
739   1146  784   1     98.44    KANGLE ; Oh-Cah-Oh
739   1146  789   1     98.44    KANGLE ; Oh-Cah-Oh
739   1146  1097  1     81.92    KANGLE ; Oh-Cah-Oh
739   1146  1102  1     81.90    KANGLE ; Oh-Cah-Oh
739   1146  1147  1     179.91   KANGLE ; Oh-Cah-Oh
784   1146  789   1     98.20    KANGLE ; Oh-Cah-Oh
784   1146  1097  1     81.65    KANGLE ; Oh-Cah-Oh
784   1146  1102  1     179.66   KANGLE ; Oh-Cah-Oh
784   1146  1147  1     81.62    KANGLE ; Oh-Cah-Oh
789   1146  1097  1     179.63   KANGLE ; Oh-Cah-Oh
789   1146  1102  1     81.81    KANGLE ; Oh-Cah-Oh
789   1146  1147  1     81.62    KANGLE ; Oh-Cah-Oh
1097  1146  1102  1     98.33    KANGLE ; Oh-Cah-Oh
1097  1146  1147  1     98.02    KANGLE ; Oh-Cah-Oh
1102  1146  1147  1     98.04    KANGLE ; Oh-Cah-Oh
1146  1147  1148  1     110.00   125.52   ; Cah-Oh-H
1146  1147  1191  1     98.24    KANGLE ; Cah-Oh-Cah
1146  1147  1196  1     98.24    KANGLE ; Cah-Oh-Cah
1148  1147  1191  1     110.00   125.52   ; H-Oh-Cah
1148  1147  1196  1     110.00   125.52   ; H-Oh-Cah
1191  1147  1196  1     97.93    KANGLE ; Cah-Oh-Cah
1150  1149  1506  1     110.00   125.52   ; H-Oh-Cah
1150  1149  1511  1     110.00   125.52   ; H-Oh-Cah
1150  1149  1556  1     110.00   125.52   ; H-Oh-Cah
1506  1149  1511  1     97.93    KANGLE ; Cah-Oh-Cah
1506  1149  1556  1     98.24    KANGLE ; Cah-Oh-Cah
1511  1149  1556  1     98.24    KANGLE ; Cah-Oh-Cah
744   1151  789   1     98.44    KANGLE ; Oh-Cah-Oh
744   1151  794   1     98.41    KANGLE ; Oh-Cah-Oh
744   1151  1102  1     81.90    KANGLE ; Oh-Cah-Oh
744   1151  1107  1     81.90    KANGLE ; Oh-Cah-Oh
744   1151  1152  1     179.91   KANGLE ; Oh-Cah-Oh
789   1151  794   1     98.36    KANGLE ; Oh-Cah-Oh
789   1151  1102  1     81.81    KANGLE ; Oh-Cah-Oh
789   1151  1107  1     179.66   KANGLE ; Oh-Cah-Oh
789   1151  1152  1     81.62    KANGLE ; Oh-Cah-Oh
794   1151  1102  1     179.62   KANGLE ; Oh-Cah-Oh
794   1151  1107  1     81.65    KANGLE ; Oh-Cah-Oh
794   1151  1152  1     81.65    KANGLE ; Oh-Cah-Oh
1102  1151  1107  1     98.17    KANGLE ; Oh-Cah-Oh
1102  1151  1152  1     98.04    KANGLE ; Oh-Cah-Oh
1107  1151  1152  1     98.04    KANGLE ; Oh-Cah-Oh
1151  1152  1153  1     110.00   125.52   ; Cah-Oh-H
1151  1152  1196  1     98.24    KANGLE ; Cah-Oh-Cah
1151  1152  1201  1     98.24    KANGLE ; Cah-Oh-Cah
1153  1152  1196  1     110.00   125.52   ; H-Oh-Cah
1153  1152  1201  1     110.00   125.52   ; H-Oh-Cah
1196  1152  1201  1     97.93    KANGLE ; Cah-Oh-Cah
1155  1154  1511  1     110.00   125.52   ; H-Oh-Cah
1155  1154  1516  1     110.00   125.52   ; H-Oh-Cah
1155  1154  1561  1     110.00   125.52   ; H-Oh-Cah
1511  1154  1516  1     98.09    KANGLE ; Cah-Oh-Cah
1511  1154  1561  1     98.03    KANGLE ; Cah-Oh-Cah
1516  1154  1561  1     98.43    KANGLE ; Cah-Oh-Cah
749   1156  794   1     98.44    KANGLE ; Oh-Cah-Oh
749   1156  799   1     98.44    KANGLE ; Oh-Cah-Oh
749   1156  1107  1     81.92    KANGLE ; Oh-Cah-Oh
749   1156  1112  1     81.90    KANGLE ; Oh-Cah-Oh
749   1156  1157  1     179.91   KANGLE ; Oh-Cah-Oh
794   1156  799   1     98.20    KANGLE ; Oh-Cah-Oh
794   1156  1107  1     81.65    KANGLE ; Oh-Cah-Oh
794   1156  1112  1     179.66   KANGLE ; Oh-Cah-Oh
794   1156  1157  1     81.62    KANGLE ; Oh-Cah-Oh
799   1156  1107  1     179.63   KANGLE ; Oh-Cah-Oh
799   1156  1112  1     81.81    KANGLE ; Oh-Cah-Oh
799   1156  1157  1     81.62    KANGLE ; Oh-Cah-Oh
1107  1156  1112  1     98.33    KANGLE ; Oh-Cah-Oh
1107  1156  1157  1     98.02    KANGLE ; Oh-Cah-Oh
1112  1156  1157  1     98.04    KANGLE ; Oh-Cah-Oh
1156  1157  1158  1     110.00   125.52   ; Cah-Oh-H
1156  1157  1201  1     98.22    KANGLE ; Cah-Oh-Cah
1156  1157  1206  1     98.24    KANGLE ; Cah-Oh-Cah
1158  1157  1201  1     110.00   125.52   ; H-Oh-Cah
1158  1157  1206  1     110.00   125.52   ; H-Oh-Cah
1201  1157  1206  1     98.09    KANGLE ; Cah-Oh-Cah
1160  1159  1516  1     110.00   125.52   ; H-Oh-Cah
1160  1159  1521  1     110.00   125.52   ; H-Oh-Cah
1160  1159  1566  1     110.00   125.52   ; H-Oh-Cah
1516  1159  1521  1     97.93    KANGLE ; Cah-Oh-Cah
1516  1159  1566  1     98.24    KANGLE ; Cah-Oh-Cah
1521  1159  1566  1     98.24    KANGLE ; Cah-Oh-Cah
754   1161  799   1     98.44    KANGLE ; Oh-Cah-Oh
754   1161  804   1     98.41    KANGLE ; Oh-Cah-Oh
754   1161  1112  1     81.90    KANGLE ; Oh-Cah-Oh
754   1161  1117  1     81.90    KANGLE ; Oh-Cah-Oh
754   1161  1162  1     179.91   KANGLE ; Oh-Cah-Oh
799   1161  804   1     98.36    KANGLE ; Oh-Cah-Oh
799   1161  1112  1     81.81    KANGLE ; Oh-Cah-Oh
799   1161  1117  1     179.66   KANGLE ; Oh-Cah-Oh
799   1161  1162  1     81.62    KANGLE ; Oh-Cah-Oh
804   1161  1112  1     179.62   KANGLE ; Oh-Cah-Oh
804   1161  1117  1     81.65    KANGLE ; Oh-Cah-Oh
804   1161  1162  1     81.65    KANGLE ; Oh-Cah-Oh
1112  1161  1117  1     98.17    KANGLE ; Oh-Cah-Oh
1112  1161  1162  1     98.04    KANGLE ; Oh-Cah-Oh
1117  1161  1162  1     98.04    KANGLE ; Oh-Cah-Oh
1161  1162  1163  1     110.00   125.52   ; Cah-Oh-H
1161  1162  1206  1     98.24    KANGLE ; Cah-Oh-Cah
1161  1162  1211  1     98.22    KANGLE ; Cah-Oh-Cah
1163  1162  1206  1     110.00   125.52   ; H-Oh-Cah
1163  1162  1211  1     110.00   125.52   ; H-Oh-Cah
1206  1162  1211  1     98.09    KANGLE ; Cah-Oh-Cah
1165  1164  1521  1     110.00   125.52   ; H-Oh-Cah
1165  1164  1526  1     110.00   125.52   ; H-Oh-Cah
1165  1164  1571  1     110.00   125.52   ; H-Oh-Cah
1521  1164  1526  1     98.09    KANGLE ; Cah-Oh-Cah
1521  1164  1571  1     98.22    KANGLE ; Cah-Oh-Cah
1526  1164  1571  1     98.24    KANGLE ; Cah-Oh-Cah
759   1166  804   1     98.44    KANGLE ; Oh-Cah-Oh
759   1166  809   1     98.44    KANGLE ; Oh-Cah-Oh
759   1166  1117  1     81.92    KANGLE ; Oh-Cah-Oh
759   1166  1122  1     81.90    KANGLE ; Oh-Cah-Oh
759   1166  1167  1     179.91   KANGLE ; Oh-Cah-Oh
804   1166  809   1     98.20    KANGLE ; Oh-Cah-Oh
804   1166  1117  1     81.65    KANGLE ; Oh-Cah-Oh
804   1166  1122  1     179.66   KANGLE ; Oh-Cah-Oh
804   1166  1167  1     81.62    KANGLE ; Oh-Cah-Oh
809   1166  1117  1     179.63   KANGLE ; Oh-Cah-Oh
809   1166  1122  1     81.81    KANGLE ; Oh-Cah-Oh
809   1166  1167  1     81.62    KANGLE ; Oh-Cah-Oh
1117  1166  1122  1     98.33    KANGLE ; Oh-Cah-Oh
1117  1166  1167  1     98.02    KANGLE ; Oh-Cah-Oh
1122  1166  1167  1     98.04    KANGLE ; Oh-Cah-Oh
1166  1167  1168  1     110.00   125.52   ; Cah-Oh-H
1166  1167  1171  1     98.23    KANGLE ; Cah-Oh-Cah
1166  1167  1211  1     98.24    KANGLE ; Cah-Oh-Cah
1168  1167  1171  1     110.00   125.52   ; H-Oh-Cah
1168  1167  1211  1     110.00   125.52   ; H-Oh-Cah
1171  1167  1211  1     98.01    KANGLE ; Cah-Oh-Cah
1170  1169  1486  1     110.00   125.52   ; H-Oh-Cah
1170  1169  1526  1     110.00   125.52   ; H-Oh-Cah
1170  1169  1531  1     110.00   125.52   ; H-Oh-Cah
1486  1169  1526  1     98.01    KANGLE ; Cah-Oh-Cah
1486  1169  1531  1     98.14    KANGLE ; Cah-Oh-Cah
1526  1169  1531  1     98.33    KANGLE ; Cah-Oh-Cah
809   1171  814   1     98.41    KANGLE ; Oh-Cah-Oh
809   1171  854   1     98.21    KANGLE ; Oh-Cah-Oh
809   1171  1127  1     81.71    KANGLE ; Oh-Cah-Oh
809   1171  1167  1     81.54    KANGLE ; Oh-Cah-Oh
809   1171  1172  1     179.58   KANGLE ; Oh-Cah-Oh
814   1171  854   1     98.53    KANGLE ; Oh-Cah-Oh
814   1171  1127  1     81.81    KANGLE ; Oh-Cah-Oh
814   1171  1167  1     179.82   KANGLE ; Oh-Cah-Oh
814   1171  1172  1     82.00    KANGLE ; Oh-Cah-Oh
854   1171  1127  1     179.66   KANGLE ; Oh-Cah-Oh
854   1171  1167  1     81.65    KANGLE ; Oh-Cah-Oh
854   1171  1172  1     81.65    KANGLE ; Oh-Cah-Oh
1127  1171  1167  1     98.01    KANGLE ; Oh-Cah-Oh
1127  1171  1172  1     98.43    KANGLE ; Oh-Cah-Oh
1167  1171  1172  1     98.04    KANGLE ; Oh-Cah-Oh
1171  1172  1173  1     110.00   125.52   ; Cah-Oh-H
1171  1172  1216  1     98.23    KANGLE ; Cah-Oh-Cah
1171  1172  1221  1     97.83    KANGLE ; Cah-Oh-Cah
1173  1172  1216  1     110.00   125.52   ; H-Oh-Cah
1173  1172  1221  1     110.00   125.52   ; H-Oh-Cah
1216  1172  1221  1     98.33    KANGLE ; Cah-Oh-Cah
1175  1174  1531  1     110.00   125.52   ; H-Oh-Cah
1175  1174  1536  1     110.00   125.52   ; H-Oh-Cah
1175  1174  1581  1     110.00   125.52   ; H-Oh-Cah
1531  1174  1536  1     98.17    KANGLE ; Cah-Oh-Cah
1531  1174  1581  1     98.04    KANGLE ; Cah-Oh-Cah
1536  1174  1581  1     98.04    KANGLE ; Cah-Oh-Cah
769   1176  814   1     98.32    KANGLE ; Oh-Cah-Oh
769   1176  819   1     98.32    KANGLE ; Oh-Cah-Oh
769   1176  1127  1     81.62    KANGLE ; Oh-Cah-Oh
769   1176  1132  1     81.62    KANGLE ; Oh-Cah-Oh
769   1176  1177  1     179.79   KANGLE ; Oh-Cah-Oh
814   1176  819   1     98.45    KANGLE ; Oh-Cah-Oh
814   1176  1127  1     81.81    KANGLE ; Oh-Cah-Oh
814   1176  1132  1     179.74   KANGLE ; Oh-Cah-Oh
814   1176  1177  1     81.82    KANGLE ; Oh-Cah-Oh
819   1176  1127  1     179.74   KANGLE ; Oh-Cah-Oh
819   1176  1132  1     81.81    KANGLE ; Oh-Cah-Oh
819   1176  1177  1     81.82    KANGLE ; Oh-Cah-Oh
1127  1176  1132  1     97.93    KANGLE ; Oh-Cah-Oh
1127  1176  1177  1     98.24    KANGLE ; Oh-Cah-Oh
1132  1176  1177  1     98.24    KANGLE ; Oh-Cah-Oh
1176  1177  1178  1     110.00   125.52   ; Cah-Oh-H
1176  1177  1221  1     98.04    KANGLE ; Cah-Oh-Cah
1176  1177  1226  1     98.04    KANGLE ; Cah-Oh-Cah
1178  1177  1221  1     110.00   125.52   ; H-Oh-Cah
1178  1177  1226  1     110.00   125.52   ; H-Oh-Cah
1221  1177  1226  1     98.17    KANGLE ; Cah-Oh-Cah
1180  1179  1536  1     110.00   125.52   ; H-Oh-Cah
1180  1179  1541  1     110.00   125.52   ; H-Oh-Cah
1180  1179  1586  1     110.00   125.52   ; H-Oh-Cah
1536  1179  1541  1     98.33    KANGLE ; Cah-Oh-Cah
1536  1179  1586  1     98.04    KANGLE ; Cah-Oh-Cah
1541  1179  1586  1     98.02    KANGLE ; Cah-Oh-Cah
774   1181  819   1     98.29    KANGLE ; Oh-Cah-Oh
774   1181  824   1     98.32    KANGLE ; Oh-Cah-Oh
774   1181  1132  1     81.65    KANGLE ; Oh-Cah-Oh
774   1181  1137  1     81.62    KANGLE ; Oh-Cah-Oh
774   1181  1182  1     179.68   KANGLE ; Oh-Cah-Oh
819   1181  824   1     98.60    KANGLE ; Oh-Cah-Oh
819   1181  1132  1     81.50    KANGLE ; Oh-Cah-Oh
819   1181  1137  1     179.58   KANGLE ; Oh-Cah-Oh
819   1181  1182  1     81.66    KANGLE ; Oh-Cah-Oh
824   1181  1132  1     179.90   KANGLE ; Oh-Cah-Oh
824   1181  1137  1     81.81    KANGLE ; Oh-Cah-Oh
824   1181  1182  1     82.00    KANGLE ; Oh-Cah-Oh
1132  1181  1137  1     98.09    KANGLE ; Oh-Cah-Oh
1132  1181  1182  1     98.03    KANGLE ; Oh-Cah-Oh
1137  1181  1182  1     98.43    KANGLE ; Oh-Cah-Oh
1181  1182  1183  1     110.00   125.52   ; Cah-Oh-H
1181  1182  1226  1     98.23    KANGLE ; Cah-Oh-Cah
1181  1182  1231  1     97.83    KANGLE ; Cah-Oh-Cah
1183  1182  1226  1     110.00   125.52   ; H-Oh-Cah
1183  1182  1231  1     110.00   125.52   ; H-Oh-Cah
1226  1182  1231  1     98.33    KANGLE ; Cah-Oh-Cah
1185  1184  1541  1     110.00   125.52   ; H-Oh-Cah
1185  1184  1546  1     110.00   125.52   ; H-Oh-Cah
1185  1184  1591  1     110.00   125.52   ; H-Oh-Cah
1541  1184  1546  1     98.17    KANGLE ; Cah-Oh-Cah
1541  1184  1591  1     98.04    KANGLE ; Cah-Oh-Cah
1546  1184  1591  1     98.04    KANGLE ; Cah-Oh-Cah
779   1186  824   1     98.32    KANGLE ; Oh-Cah-Oh
779   1186  829   1     98.32    KANGLE ; Oh-Cah-Oh
779   1186  1137  1     81.62    KANGLE ; Oh-Cah-Oh
779   1186  1142  1     81.62    KANGLE ; Oh-Cah-Oh
779   1186  1187  1     179.79   KANGLE ; Oh-Cah-Oh
824   1186  829   1     98.45    KANGLE ; Oh-Cah-Oh
824   1186  1137  1     81.81    KANGLE ; Oh-Cah-Oh
824   1186  1142  1     179.74   KANGLE ; Oh-Cah-Oh
824   1186  1187  1     81.82    KANGLE ; Oh-Cah-Oh
829   1186  1137  1     179.74   KANGLE ; Oh-Cah-Oh
829   1186  1142  1     81.81    KANGLE ; Oh-Cah-Oh
829   1186  1187  1     81.82    KANGLE ; Oh-Cah-Oh
1137  1186  1142  1     97.93    KANGLE ; Oh-Cah-Oh
1137  1186  1187  1     98.24    KANGLE ; Oh-Cah-Oh
1142  1186  1187  1     98.24    KANGLE ; Oh-Cah-Oh
1186  1187  1188  1     110.00   125.52   ; Cah-Oh-H
1186  1187  1231  1     98.04    KANGLE ; Cah-Oh-Cah
1186  1187  1236  1     98.04    KANGLE ; Cah-Oh-Cah
1188  1187  1231  1     110.00   125.52   ; H-Oh-Cah
1188  1187  1236  1     110.00   125.52   ; H-Oh-Cah
1231  1187  1236  1     98.17    KANGLE ; Cah-Oh-Cah
1190  1189  1546  1     110.00   125.52   ; H-Oh-Cah
1190  1189  1551  1     110.00   125.52   ; H-Oh-Cah
1190  1189  1596  1     110.00   125.52   ; H-Oh-Cah
1546  1189  1551  1     98.33    KANGLE ; Cah-Oh-Cah
1546  1189  1596  1     98.04    KANGLE ; Cah-Oh-Cah
1551  1189  1596  1     98.02    KANGLE ; Cah-Oh-Cah
784   1191  829   1     98.29    KANGLE ; Oh-Cah-Oh
784   1191  834   1     98.32    KANGLE ; Oh-Cah-Oh
784   1191  1142  1     81.65    KANGLE ; Oh-Cah-Oh
784   1191  1147  1     81.62    KANGLE ; Oh-Cah-Oh
784   1191  1192  1     179.68   KANGLE ; Oh-Cah-Oh
829   1191  834   1     98.60    KANGLE ; Oh-Cah-Oh
829   1191  1142  1     81.50    KANGLE ; Oh-Cah-Oh
829   1191  1147  1     179.58   KANGLE ; Oh-Cah-Oh
829   1191  1192  1     81.66    KANGLE ; Oh-Cah-Oh
834   1191  1142  1     179.90   KANGLE ; Oh-Cah-Oh
834   1191  1147  1     81.81    KANGLE ; Oh-Cah-Oh
834   1191  1192  1     82.00    KANGLE ; Oh-Cah-Oh
1142  1191  1147  1     98.09    KANGLE ; Oh-Cah-Oh
1142  1191  1192  1     98.03    KANGLE ; Oh-Cah-Oh
1147  1191  1192  1     98.43    KANGLE ; Oh-Cah-Oh
1191  1192  1193  1     110.00   125.52   ; Cah-Oh-H
1191  1192  1236  1     98.23    KANGLE ; Cah-Oh-Cah
1191  1192  1241  1     97.83    KANGLE ; Cah-Oh-Cah
1193  1192  1236  1     110.00   125.52   ; H-Oh-Cah
1193  1192  1241  1     110.00   125.52   ; H-Oh-Cah
1236  1192  1241  1     98.33    KANGLE ; Cah-Oh-Cah
1195  1194  1551  1     110.00   125.52   ; H-Oh-Cah
1195  1194  1556  1     110.00   125.52   ; H-Oh-Cah
1195  1194  1601  1     110.00   125.52   ; H-Oh-Cah
1551  1194  1556  1     98.17    KANGLE ; Cah-Oh-Cah
1551  1194  1601  1     98.04    KANGLE ; Cah-Oh-Cah
1556  1194  1601  1     98.04    KANGLE ; Cah-Oh-Cah
789   1196  834   1     98.32    KANGLE ; Oh-Cah-Oh
789   1196  839   1     98.32    KANGLE ; Oh-Cah-Oh
789   1196  1147  1     81.62    KANGLE ; Oh-Cah-Oh
789   1196  1152  1     81.62    KANGLE ; Oh-Cah-Oh
789   1196  1197  1     179.79   KANGLE ; Oh-Cah-Oh
834   1196  839   1     98.45    KANGLE ; Oh-Cah-Oh
834   1196  1147  1     81.81    KANGLE ; Oh-Cah-Oh
834   1196  1152  1     179.74   KANGLE ; Oh-Cah-Oh
834   1196  1197  1     81.82    KANGLE ; Oh-Cah-Oh
839   1196  1147  1     179.74   KANGLE ; Oh-Cah-Oh
839   1196  1152  1     81.81    KANGLE ; Oh-Cah-Oh
839   1196  1197  1     81.82    KANGLE ; Oh-Cah-Oh
1147  1196  1152  1     97.93    KANGLE ; Oh-Cah-Oh
1147  1196  1197  1     98.24    KANGLE ; Oh-Cah-Oh
1152  1196  1197  1     98.24    KANGLE ; Oh-Cah-Oh
1196  1197  1198  1     110.00   125.52   ; Cah-Oh-H
1196  1197  1241  1     98.04    KANGLE ; Cah-Oh-Cah
1196  1197  1246  1     98.04    KANGLE ; Cah-Oh-Cah
1198  1197  1241  1     110.00   125.52   ; H-Oh-Cah
1198  1197  1246  1     110.00   125.52   ; H-Oh-Cah
1241  1197  1246  1     98.17    KANGLE ; Cah-Oh-Cah
1200  1199  1556  1     110.00   125.52   ; H-Oh-Cah
1200  1199  1561  1     110.00   125.52   ; H-Oh-Cah
1200  1199  1606  1     110.00   125.52   ; H-Oh-Cah
1556  1199  1561  1     98.17    KANGLE ; Cah-Oh-Cah
1556  1199  1606  1     98.04    KANGLE ; Cah-Oh-Cah
1561  1199  1606  1     98.04    KANGLE ; Cah-Oh-Cah
794   1201  839   1     98.50    KANGLE ; Oh-Cah-Oh
794   1201  844   1     98.10    KANGLE ; Oh-Cah-Oh
794   1201  1152  1     81.81    KANGLE ; Oh-Cah-Oh
794   1201  1157  1     81.46    KANGLE ; Oh-Cah-Oh
794   1201  1202  1     179.68   KANGLE ; Oh-Cah-Oh
839   1201  844   1     98.60    KANGLE ; Oh-Cah-Oh
839   1201  1152  1     81.81    KANGLE ; Oh-Cah-Oh
839   1201  1157  1     179.90   KANGLE ; Oh-Cah-Oh
839   1201  1202  1     81.82    KANGLE ; Oh-Cah-Oh
844   1201  1152  1     179.58   KANGLE ; Oh-Cah-Oh
844   1201  1157  1     81.50    KANGLE ; Oh-Cah-Oh
844   1201  1202  1     81.85    KANGLE ; Oh-Cah-Oh
1152  1201  1157  1     98.09    KANGLE ; Oh-Cah-Oh
1152  1201  1202  1     98.24    KANGLE ; Oh-Cah-Oh
1157  1201  1202  1     98.22    KANGLE ; Oh-Cah-Oh
1201  1202  1203  1     110.00   125.52   ; Cah-Oh-H
1201  1202  1246  1     98.04    KANGLE ; Cah-Oh-Cah
1201  1202  1251  1     98.02    KANGLE ; Cah-Oh-Cah
1203  1202  1246  1     110.00   125.52   ; H-Oh-Cah
1203  1202  1251  1     110.00   125.52   ; H-Oh-Cah
1246  1202  1251  1     98.33    KANGLE ; Cah-Oh-Cah
1205  1204  1561  1     110.00   125.52   ; H-Oh-Cah
1205  1204  1566  1     110.00   125.52   ; H-Oh-Cah
1205  1204  1611  1     110.00   125.52   ; H-Oh-Cah
1561  1204  1566  1     98.33    KANGLE ; Cah-Oh-Cah
1561  1204  1611  1     98.02    KANGLE ; Cah-Oh-Cah
1566  1204  1611  1     98.04    KANGLE ; Cah-Oh-Cah
799   1206  844   1     98.32    KANGLE ; Oh-Cah-Oh
799   1206  849   1     98.32    KANGLE ; Oh-Cah-Oh
799   1206  1157  1     81.62    KANGLE ; Oh-Cah-Oh
799   1206  1162  1     81.62    KANGLE ; Oh-Cah-Oh
799   1206  1207  1     179.79   KANGLE ; Oh-Cah-Oh
844   1206  849   1     98.45    KANGLE ; Oh-Cah-Oh
844   1206  1157  1     81.81    KANGLE ; Oh-Cah-Oh
844   1206  1162  1     179.74   KANGLE ; Oh-Cah-Oh
844   1206  1207  1     81.82    KANGLE ; Oh-Cah-Oh
849   1206  1157  1     179.74   KANGLE ; Oh-Cah-Oh
849   1206  1162  1     81.81    KANGLE ; Oh-Cah-Oh
849   1206  1207  1     81.82    KANGLE ; Oh-Cah-Oh
1157  1206  1162  1     97.93    KANGLE ; Oh-Cah-Oh
1157  1206  1207  1     98.24    KANGLE ; Oh-Cah-Oh
1162  1206  1207  1     98.24    KANGLE ; Oh-Cah-Oh
1206  1207  1208  1     110.00   125.52   ; Cah-Oh-H
1206  1207  1251  1     98.04    KANGLE ; Cah-Oh-Cah
1206  1207  1256  1     98.04    KANGLE ; Cah-Oh-Cah
1208  1207  1251  1     110.00   125.52   ; H-Oh-Cah
1208  1207  1256  1     110.00   125.52   ; H-Oh-Cah
1251  1207  1256  1     98.17    KANGLE ; Cah-Oh-Cah
1210  1209  1566  1     110.00   125.52   ; H-Oh-Cah
1210  1209  1571  1     110.00   125.52   ; H-Oh-Cah
1210  1209  1616  1     110.00   125.52   ; H-Oh-Cah
1566  1209  1571  1     98.33    KANGLE ; Cah-Oh-Cah
1566  1209  1616  1     98.04    KANGLE ; Cah-Oh-Cah
1571  1209  1616  1     98.02    KANGLE ; Cah-Oh-Cah
804   1211  849   1     98.29    KANGLE ; Oh-Cah-Oh
804   1211  854   1     98.32    KANGLE ; Oh-Cah-Oh
804   1211  1162  1     81.65    KANGLE ; Oh-Cah-Oh
804   1211  1167  1     81.62    KANGLE ; Oh-Cah-Oh
804   1211  1212  1     179.68   KANGLE ; Oh-Cah-Oh
849   1211  854   1     98.60    KANGLE ; Oh-Cah-Oh
849   1211  1162  1     81.50    KANGLE ; Oh-Cah-Oh
849   1211  1167  1     179.58   KANGLE ; Oh-Cah-Oh
849   1211  1212  1     81.66    KANGLE ; Oh-Cah-Oh
854   1211  1162  1     179.90   KANGLE ; Oh-Cah-Oh
854   1211  1167  1     81.81    KANGLE ; Oh-Cah-Oh
854   1211  1212  1     82.00    KANGLE ; Oh-Cah-Oh
1162  1211  1167  1     98.09    KANGLE ; Oh-Cah-Oh
1162  1211  1212  1     98.03    KANGLE ; Oh-Cah-Oh
1167  1211  1212  1     98.43    KANGLE ; Oh-Cah-Oh
1211  1212  1213  1     110.00   125.52   ; Cah-Oh-H
1211  1212  1216  1     97.85    KANGLE ; Cah-Oh-Cah
1211  1212  1256  1     98.23    KANGLE ; Cah-Oh-Cah
1213  1212  1216  1     110.00   125.52   ; H-Oh-Cah
1213  1212  1256  1     110.00   125.52   ; H-Oh-Cah
1216  1212  1256  1     98.25    KANGLE ; Cah-Oh-Cah
1215  1214  1531  1     110.00   125.52   ; H-Oh-Cah
1215  1214  1571  1     110.00   125.52   ; H-Oh-Cah
1215  1214  1576  1     110.00   125.52   ; H-Oh-Cah
1531  1214  1571  1     98.25    KANGLE ; Cah-Oh-Cah
1531  1214  1576  1     98.12    KANGLE ; Cah-Oh-Cah
1571  1214  1576  1     97.95    KANGLE ; Cah-Oh-Cah
854   1216  859   1     98.39    KANGLE ; Oh-Cah-Oh
854   1216  899   1     98.62    KANGLE ; Oh-Cah-Oh
854   1216  1172  1     81.73    KANGLE ; Oh-Cah-Oh
854   1216  1212  1     81.93    KANGLE ; Oh-Cah-Oh
854   1216  1217  1     179.76   KANGLE ; Oh-Cah-Oh
859   1216  899   1     98.28    KANGLE ; Oh-Cah-Oh
859   1216  1172  1     81.65    KANGLE ; Oh-Cah-Oh
859   1216  1212  1     179.65   KANGLE ; Oh-Cah-Oh
859   1216  1217  1     81.65    KANGLE ; Oh-Cah-Oh
899   1216  1172  1     179.65   KANGLE ; Oh-Cah-Oh
899   1216  1212  1     81.81    KANGLE ; Oh-Cah-Oh
899   1216  1217  1     81.61    KANGLE ; Oh-Cah-Oh
1172  1216  1212  1     98.25    KANGLE ; Oh-Cah-Oh
1172  1216  1217  1     98.04    KANGLE ; Oh-Cah-Oh
1212  1216  1217  1     98.03    KANGLE ; Oh-Cah-Oh
1216  1217  1218  1     110.00   125.52   ; Cah-Oh-H
1216  1217  1261  1     98.24    KANGLE ; Cah-Oh-Cah
1216  1217  1266  1     98.22    KANGLE ; Cah-Oh-Cah
1218  1217  1261  1     110.00   125.52   ; H-Oh-Cah
1218  1217  1266  1     110.00   125.52   ; H-Oh-Cah
1261  1217  1266  1     98.09    KANGLE ; Cah-Oh-Cah
1220  1219  1576  1     110.00   125.52   ; H-Oh-Cah
1220  1219  1581  1     110.00   125.52   ; H-Oh-Cah
1220  1219  1626  1     110.00   125.52   ; H-Oh-Cah
1576  1219  1581  1     98.09    KANGLE ; Cah-Oh-Cah
1576  1219  1626  1     98.22    KANGLE ; Cah-Oh-Cah
1581  1219  1626  1     98.24    KANGLE ; Cah-Oh-Cah
814   1221  859   1     98.51    KANGLE ; Oh-Cah-Oh
814   1221  864   1     98.51    KANGLE ; Oh-Cah-Oh
814   1221  1172  1     81.85    KANGLE ; Oh-Cah-Oh
814   1221  1177  1     81.82    KANGLE ; Oh-Cah-Oh
814   1221  1222  1     179.79   KANGLE ; Oh-Cah-Oh
859   1221  864   1     98.20    KANGLE ; Oh-Cah-Oh
859   1221  1172  1     81.65    KANGLE ; Oh-Cah-Oh
859   1221  1177  1     179.66   KANGLE ; Oh-Cah-Oh
859   1221  1222  1     81.62    KANGLE ; Oh-Cah-Oh
864   1221  1172  1     179.63   KANGLE ; Oh-Cah-Oh
864   1221  1177  1     81.81    KANGLE ; Oh-Cah-Oh
864   1221  1222  1     81.62    KANGLE ; Oh-Cah-Oh
1172  1221  1177  1     98.33    KANGLE ; Oh-Cah-Oh
1172  1221  1222  1     98.02    KANGLE ; Oh-Cah-Oh
1177  1221  1222  1     98.04    KANGLE ; Oh-Cah-Oh
1221  1222  1223  1     110.00   125.52   ; Cah-Oh-H
1221  1222  1266  1     98.24    KANGLE ; Cah-Oh-Cah
1221  1222  1271  1     98.24    KANGLE ; Cah-Oh-Cah
1223  1222  1266  1     110.00   125.52   ; H-Oh-Cah
1223  1222  1271  1     110.00   125.52   ; H-Oh-Cah
1266  1222  1271  1     97.93    KANGLE ; Cah-Oh-Cah
1225  1224  1581  1     110.00   125.52   ; H-Oh-Cah
1225  1224  1586  1     110.00   125.52   ; H-Oh-Cah
1225  1224  1631  1     110.00   125.52   ; H-Oh-Cah
1581  1224  1586  1     97.93    KANGLE ; Cah-Oh-Cah
1581  1224  1631  1     98.24    KANGLE ; Cah-Oh-Cah
1586  1224  1631  1     98.24    KANGLE ; Cah-Oh-Cah
819   1226  864   1     98.51    KANGLE ; Oh-Cah-Oh
819   1226  869   1     98.49    KANGLE ; Oh-Cah-Oh
819   1226  1177  1     81.82    KANGLE ; Oh-Cah-Oh
819   1226  1182  1     81.82    KANGLE ; Oh-Cah-Oh
819   1226  1227  1     179.79   KANGLE ; Oh-Cah-Oh
864   1226  869   1     98.36    KANGLE ; Oh-Cah-Oh
864   1226  1177  1     81.81    KANGLE ; Oh-Cah-Oh
864   1226  1182  1     179.66   KANGLE ; Oh-Cah-Oh
864   1226  1227  1     81.62    KANGLE ; Oh-Cah-Oh
869   1226  1177  1     179.62   KANGLE ; Oh-Cah-Oh
869   1226  1182  1     81.65    KANGLE ; Oh-Cah-Oh
869   1226  1227  1     81.65    KANGLE ; Oh-Cah-Oh
1177  1226  1182  1     98.17    KANGLE ; Oh-Cah-Oh
1177  1226  1227  1     98.04    KANGLE ; Oh-Cah-Oh
1182  1226  1227  1     98.04    KANGLE ; Oh-Cah-Oh
1226  1227  1228  1     110.00   125.52   ; Cah-Oh-H
1226  1227  1271  1     98.24    KANGLE ; Cah-Oh-Cah
1226  1227  1276  1     98.22    KANGLE ; Cah-Oh-Cah
1228  1227  1271  1     110.00   125.52   ; H-Oh-Cah
1228  1227  1276  1     110.00   125.52   ; H-Oh-Cah
1271  1227  1276  1     98.09    KANGLE ; Cah-Oh-Cah
1230  1229  1586  1     110.00   125.52   ; H-Oh-Cah
1230  1229  1591  1     110.00   125.52   ; H-Oh-Cah
1230  1229  1636  1     110.00   125.52   ; H-Oh-Cah
1586  1229  1591  1     98.09    KANGLE ; Cah-Oh-Cah
1586  1229  1636  1     98.22    KANGLE ; Cah-Oh-Cah
1591  1229  1636  1     98.24    KANGLE ; Cah-Oh-Cah
824   1231  869   1     98.51    KANGLE ; Oh-Cah-Oh
824   1231  874   1     98.51    KANGLE ; Oh-Cah-Oh
824   1231  1182  1     81.85    KANGLE ; Oh-Cah-Oh
824   1231  1187  1     81.82    KANGLE ; Oh-Cah-Oh
824   1231  1232  1     179.79   KANGLE ; Oh-Cah-Oh
869   1231  874   1     98.20    KANGLE ; Oh-Cah-Oh
869   1231  1182  1     81.65    KANGLE ; Oh-Cah-Oh
869   1231  1187  1     179.66   KANGLE ; Oh-Cah-Oh
869   1231  1232  1     81.62    KANGLE ; Oh-Cah-Oh
874   1231  1182  1     179.63   KANGLE ; Oh-Cah-Oh
874   1231  1187  1     81.81    KANGLE ; Oh-Cah-Oh
874   1231  1232  1     81.62    KANGLE ; Oh-Cah-Oh
1182  1231  1187  1     98.33    KANGLE ; Oh-Cah-Oh
1182  1231  1232  1     98.02    KANGLE ; Oh-Cah-Oh
1187  1231  1232  1     98.04    KANGLE ; Oh-Cah-Oh
1231  1232  1233  1     110.00   125.52   ; Cah-Oh-H
1231  1232  1276  1     98.24    KANGLE ; Cah-Oh-Cah
1231  1232  1281  1     98.24    KANGLE ; Cah-Oh-Cah
1233  1232  1276  1     110.00   125.52   ; H-Oh-Cah
1233  1232  1281  1     110.00   125.52   ; H-Oh-Cah
1276  1232  1281  1     97.93    KANGLE ; Cah-Oh-Cah
1235  1234  1591  1     110.00   125.52   ; H-Oh-Cah
1235  1234  1596  1     110.00   125.52   ; H-Oh-Cah
1235  1234  1641  1     110.00   125.52   ; H-Oh-Cah
1591  1234  1596  1     97.93    KANGLE ; Cah-Oh-Cah
1591  1234  1641  1     98.24    KANGLE ; Cah-Oh-Cah
1596  1234  1641  1     98.24    KANGLE ; Cah-Oh-Cah
829   1236  874   1     98.51    KANGLE ; Oh-Cah-Oh
829   1236  879   1     98.49    KANGLE ; Oh-Cah-Oh
829   1236  1187  1     81.82    KANGLE ; Oh-Cah-Oh
829   1236  1192  1     81.82    KANGLE ; Oh-Cah-Oh
829   1236  1237  1     179.79   KANGLE ; Oh-Cah-Oh
874   1236  879   1     98.36    KANGLE ; Oh-Cah-Oh
874   1236  1187  1     81.81    KANGLE ; Oh-Cah-Oh
874   1236  1192  1     179.66   KANGLE ; Oh-Cah-Oh
874   1236  1237  1     81.62    KANGLE ; Oh-Cah-Oh
879   1236  1187  1     179.62   KANGLE ; Oh-Cah-Oh
879   1236  1192  1     81.65    KANGLE ; Oh-Cah-Oh
879   1236  1237  1     81.65    KANGLE ; Oh-Cah-Oh
1187  1236  1192  1     98.17    KANGLE ; Oh-Cah-Oh
1187  1236  1237  1     98.04    KANGLE ; Oh-Cah-Oh
1192  1236  1237  1     98.04    KANGLE ; Oh-Cah-Oh
1236  1237  1238  1     110.00   125.52   ; Cah-Oh-H
1236  1237  1281  1     98.24    KANGLE ; Cah-Oh-Cah
1236  1237  1286  1     98.22    KANGLE ; Cah-Oh-Cah
1238  1237  1281  1     110.00   125.52   ; H-Oh-Cah
1238  1237  1286  1     110.00   125.52   ; H-Oh-Cah
1281  1237  1286  1     98.09    KANGLE ; Cah-Oh-Cah
1240  1239  1596  1     110.00   125.52   ; H-Oh-Cah
1240  1239  1601  1     110.00   125.52   ; H-Oh-Cah
1240  1239  1646  1     110.00   125.52   ; H-Oh-Cah
1596  1239  1601  1     98.09    KANGLE ; Cah-Oh-Cah
1596  1239  1646  1     98.22    KANGLE ; Cah-Oh-Cah
1601  1239  1646  1     98.24    KANGLE ; Cah-Oh-Cah
834   1241  879   1     98.51    KANGLE ; Oh-Cah-Oh
834   1241  884   1     98.51    KANGLE ; Oh-Cah-Oh
834   1241  1192  1     81.85    KANGLE ; Oh-Cah-Oh
834   1241  1197  1     81.82    KANGLE ; Oh-Cah-Oh
834   1241  1242  1     179.79   KANGLE ; Oh-Cah-Oh
879   1241  884   1     98.20    KANGLE ; Oh-Cah-Oh
879   1241  1192  1     81.65    KANGLE ; Oh-Cah-Oh
879   1241  1197  1     179.66   KANGLE ; Oh-Cah-Oh
879   1241  1242  1     81.62    KANGLE ; Oh-Cah-Oh
884   1241  1192  1     179.63   KANGLE ; Oh-Cah-Oh
884   1241  1197  1     81.81    KANGLE ; Oh-Cah-Oh
884   1241  1242  1     81.62    KANGLE ; Oh-Cah-Oh
1192  1241  1197  1     98.33    KANGLE ; Oh-Cah-Oh
1192  1241  1242  1     98.02    KANGLE ; Oh-Cah-Oh
1197  1241  1242  1     98.04    KANGLE ; Oh-Cah-Oh
1241  1242  1243  1     110.00   125.52   ; Cah-Oh-H
1241  1242  1286  1     98.24    KANGLE ; Cah-Oh-Cah
1241  1242  1291  1     98.24    KANGLE ; Cah-Oh-Cah
1243  1242  1286  1     110.00   125.52   ; H-Oh-Cah
1243  1242  1291  1     110.00   125.52   ; H-Oh-Cah
1286  1242  1291  1     97.93    KANGLE ; Cah-Oh-Cah
1245  1244  1601  1     110.00   125.52   ; H-Oh-Cah
1245  1244  1606  1     110.00   125.52   ; H-Oh-Cah
1245  1244  1651  1     110.00   125.52   ; H-Oh-Cah
1601  1244  1606  1     97.93    KANGLE ; Cah-Oh-Cah
1601  1244  1651  1     98.24    KANGLE ; Cah-Oh-Cah
1606  1244  1651  1     98.24    KANGLE ; Cah-Oh-Cah
839   1246  884   1     98.51    KANGLE ; Oh-Cah-Oh
839   1246  889   1     98.49    KANGLE ; Oh-Cah-Oh
839   1246  1197  1     81.82    KANGLE ; Oh-Cah-Oh
839   1246  1202  1     81.82    KANGLE ; Oh-Cah-Oh
839   1246  1247  1     179.79   KANGLE ; Oh-Cah-Oh
884   1246  889   1     98.36    KANGLE ; Oh-Cah-Oh
884   1246  1197  1     81.81    KANGLE ; Oh-Cah-Oh
884   1246  1202  1     179.66   KANGLE ; Oh-Cah-Oh
884   1246  1247  1     81.62    KANGLE ; Oh-Cah-Oh
889   1246  1197  1     179.62   KANGLE ; Oh-Cah-Oh
889   1246  1202  1     81.65    KANGLE ; Oh-Cah-Oh
889   1246  1247  1     81.65    KANGLE ; Oh-Cah-Oh
1197  1246  1202  1     98.17    KANGLE ; Oh-Cah-Oh
1197  1246  1247  1     98.04    KANGLE ; Oh-Cah-Oh
1202  1246  1247  1     98.04    KANGLE ; Oh-Cah-Oh
1246  1247  1248  1     110.00   125.52   ; Cah-Oh-H
1246  1247  1291  1     98.24    KANGLE ; Cah-Oh-Cah
1246  1247  1296  1     98.22    KANGLE ; Cah-Oh-Cah
1248  1247  1291  1     110.00   125.52   ; H-Oh-Cah
1248  1247  1296  1     110.00   125.52   ; H-Oh-Cah
1291  1247  1296  1     98.09    KANGLE ; Cah-Oh-Cah
1250  1249  1606  1     110.00   125.52   ; H-Oh-Cah
1250  1249  1611  1     110.00   125.52   ; H-Oh-Cah
1250  1249  1656  1     110.00   125.52   ; H-Oh-Cah
1606  1249  1611  1     98.09    KANGLE ; Cah-Oh-Cah
1606  1249  1656  1     98.22    KANGLE ; Cah-Oh-Cah
1611  1249  1656  1     98.24    KANGLE ; Cah-Oh-Cah
844   1251  889   1     98.51    KANGLE ; Oh-Cah-Oh
844   1251  894   1     98.51    KANGLE ; Oh-Cah-Oh
844   1251  1202  1     81.85    KANGLE ; Oh-Cah-Oh
844   1251  1207  1     81.82    KANGLE ; Oh-Cah-Oh
844   1251  1252  1     179.79   KANGLE ; Oh-Cah-Oh
889   1251  894   1     98.20    KANGLE ; Oh-Cah-Oh
889   1251  1202  1     81.65    KANGLE ; Oh-Cah-Oh
889   1251  1207  1     179.66   KANGLE ; Oh-Cah-Oh
889   1251  1252  1     81.62    KANGLE ; Oh-Cah-Oh
894   1251  1202  1     179.63   KANGLE ; Oh-Cah-Oh
894   1251  1207  1     81.81    KANGLE ; Oh-Cah-Oh
894   1251  1252  1     81.62    KANGLE ; Oh-Cah-Oh
1202  1251  1207  1     98.33    KANGLE ; Oh-Cah-Oh
1202  1251  1252  1     98.02    KANGLE ; Oh-Cah-Oh
1207  1251  1252  1     98.04    KANGLE ; Oh-Cah-Oh
1251  1252  1253  1     110.00   125.52   ; Cah-Oh-H
1251  1252  1296  1     98.24    KANGLE ; Cah-Oh-Cah
1251  1252  1301  1     98.24    KANGLE ; Cah-Oh-Cah
1253  1252  1296  1     110.00   125.52   ; H-Oh-Cah
1253  1252  1301  1     110.00   125.52   ; H-Oh-Cah
1296  1252  1301  1     97.93    KANGLE ; Cah-Oh-Cah
1255  1254  1611  1     110.00   125.52   ; H-Oh-Cah
1255  1254  1616  1     110.00   125.52   ; H-Oh-Cah
1255  1254  1661  1     110.00   125.52   ; H-Oh-Cah
1611  1254  1616  1     97.93    KANGLE ; Cah-Oh-Cah
1611  1254  1661  1     98.24    KANGLE ; Cah-Oh-Cah
1616  1254  1661  1     98.24    KANGLE ; Cah-Oh-Cah
849   1256  894   1     98.51    KANGLE ; Oh-Cah-Oh
849   1256  899   1     98.49    KANGLE ; Oh-Cah-Oh
849   1256  1207  1     81.82    KANGLE ; Oh-Cah-Oh
849   1256  1212  1     81.82    KANGLE ; Oh-Cah-Oh
849   1256  1257  1     179.79   KANGLE ; Oh-Cah-Oh
894   1256  899   1     98.36    KANGLE ; Oh-Cah-Oh
894   1256  1207  1     81.81    KANGLE ; Oh-Cah-Oh
894   1256  1212  1     179.66   KANGLE ; Oh-Cah-Oh
894   1256  1257  1     81.62    KANGLE ; Oh-Cah-Oh
899   1256  1207  1     179.62   KANGLE ; Oh-Cah-Oh
899   1256  1212  1     81.65    KANGLE ; Oh-Cah-Oh
899   1256  1257  1     81.65    KANGLE ; Oh-Cah-Oh
1207  1256  1212  1     98.17    KANGLE ; Oh-Cah-Oh
1207  1256  1257  1     98.04    KANGLE ; Oh-Cah-Oh
1212  1256  1257  1     98.04    KANGLE ; Oh-Cah-Oh
1256  1257  1258  1     110.00   125.52   ; Cah-Oh-H
1256  1257  1261  1     98.23    KANGLE ; Cah-Oh-Cah
1256  1257  1301  1     98.24    KANGLE ; Cah-Oh-Cah
1258  1257  1261  1     110.00   125.52   ; H-Oh-Cah
1258  1257  1301  1     110.00   125.52   ; H-Oh-Cah
1261  1257  1301  1     98.01    KANGLE ; Cah-Oh-Cah
1260  1259  1576  1     110.00   125.52   ; H-Oh-Cah
1260  1259  1616  1     110.00   125.52   ; H-Oh-Cah
1260  1259  1621  1     110.00   125.52   ; H-Oh-Cah
1576  1259  1616  1     98.01    KANGLE ; Cah-Oh-Cah
1576  1259  1621  1     98.35    KANGLE ; Cah-Oh-Cah
1616  1259  1621  1     98.12    KANGLE ; Cah-Oh-Cah
899   1261  904   1     98.22    KANGLE ; Oh-Cah-Oh
899   1261  944   1     98.40    KANGLE ; Oh-Cah-Oh
899   1261  1217  1     81.53    KANGLE ; Oh-Cah-Oh
899   1261  1257  1     81.73    KANGLE ; Oh-Cah-Oh
899   1261  1262  1     179.76   KANGLE ; Oh-Cah-Oh
904   1261  944   1     98.53    KANGLE ; Oh-Cah-Oh
904   1261  1217  1     81.81    KANGLE ; Oh-Cah-Oh
904   1261  1257  1     179.82   KANGLE ; Oh-Cah-Oh
904   1261  1262  1     81.82    KANGLE ; Oh-Cah-Oh
944   1261  1217  1     179.66   KANGLE ; Oh-Cah-Oh
944   1261  1257  1     81.65    KANGLE ; Oh-Cah-Oh
944   1261  1262  1     81.83    KANGLE ; Oh-Cah-Oh
1217  1261  1257  1     98.01    KANGLE ; Oh-Cah-Oh
1217  1261  1262  1     98.24    KANGLE ; Oh-Cah-Oh
1257  1261  1262  1     98.23    KANGLE ; Oh-Cah-Oh
1261  1262  1263  1     110.00   125.52   ; Cah-Oh-H
1261  1262  1306  1     98.04    KANGLE ; Cah-Oh-Cah
1261  1262  1311  1     98.04    KANGLE ; Cah-Oh-Cah
1263  1262  1306  1     110.00   125.52   ; H-Oh-Cah
1263  1262  1311  1     110.00   125.52   ; H-Oh-Cah
1306  1262  1311  1     98.17    KANGLE ; Cah-Oh-Cah
1265  1264  1621  1     110.00   125.52   ; H-Oh-Cah
1265  1264  1626  1     110.00   125.52   ; H-Oh-Cah
1265  1264  1671  1     110.00   125.52   ; H-Oh-Cah
1621  1264  1626  1     98.33    KANGLE ; Cah-Oh-Cah
1621  1264  1671  1     98.04    KANGLE ; Cah-Oh-Cah
1626  1264  1671  1     98.02    KANGLE ; Cah-Oh-Cah
859   1266  904   1     98.29    KANGLE ; Oh-Cah-Oh
859   1266  909   1     98.32    KANGLE ; Oh-Cah-Oh
859   1266  1217  1     81.65    KANGLE ; Oh-Cah-Oh
859   1266  1222  1     81.62    KANGLE ; Oh-Cah-Oh
859   1266  1267  1     179.68   KANGLE ; Oh-Cah-Oh
904   1266  909   1     98.60    KANGLE ; Oh-Cah-Oh
904   1266  1217  1     81.50    KANGLE ; Oh-Cah-Oh
904   1266  1222  1     179.58   KANGLE ; Oh-Cah-Oh
904   1266  1267  1     81.66    KANGLE ; Oh-Cah-Oh
909   1266  1217  1     179.90   KANGLE ; Oh-Cah-Oh
909   1266  1222  1     81.81    KANGLE ; Oh-Cah-Oh
909   1266  1267  1     82.00    KANGLE ; Oh-Cah-Oh
1217  1266  1222  1     98.09    KANGLE ; Oh-Cah-Oh
1217  1266  1267  1     98.03    KANGLE ; Oh-Cah-Oh
1222  1266  1267  1     98.43    KANGLE ; Oh-Cah-Oh
1266  1267  1268  1     110.00   125.52   ; Cah-Oh-H
1266  1267  1311  1     98.23    KANGLE ; Cah-Oh-Cah
1266  1267  1316  1     97.83    KANGLE ; Cah-Oh-Cah
1268  1267  1311  1     110.00   125.52   ; H-Oh-Cah
1268  1267  1316  1     110.00   125.52   ; H-Oh-Cah
1311  1267  1316  1     98.33    KANGLE ; Cah-Oh-Cah
1270  1269  1626  1     110.00   125.52   ; H-Oh-Cah
1270  1269  1631  1     110.00   125.52   ; H-Oh-Cah
1270  1269  1676  1     110.00   125.52   ; H-Oh-Cah
1626  1269  1631  1     98.17    KANGLE ; Cah-Oh-Cah
1626  1269  1676  1     98.04    KANGLE ; Cah-Oh-Cah
1631  1269  1676  1     98.04    KANGLE ; Cah-Oh-Cah
864   1271  909   1     98.32    KANGLE ; Oh-Cah-Oh
864   1271  914   1     98.32    KANGLE ; Oh-Cah-Oh
864   1271  1222  1     81.62    KANGLE ; Oh-Cah-Oh
864   1271  1227  1     81.62    KANGLE ; Oh-Cah-Oh
864   1271  1272  1     179.79   KANGLE ; Oh-Cah-Oh
909   1271  914   1     98.45    KANGLE ; Oh-Cah-Oh
909   1271  1222  1     81.81    KANGLE ; Oh-Cah-Oh
909   1271  1227  1     179.74   KANGLE ; Oh-Cah-Oh
909   1271  1272  1     81.82    KANGLE ; Oh-Cah-Oh
914   1271  1222  1     179.74   KANGLE ; Oh-Cah-Oh
914   1271  1227  1     81.81    KANGLE ; Oh-Cah-Oh
914   1271  1272  1     81.82    KANGLE ; Oh-Cah-Oh
1222  1271  1227  1     97.93    KANGLE ; Oh-Cah-Oh
1222  1271  1272  1     98.24    KANGLE ; Oh-Cah-Oh
1227  1271  1272  1     98.24    KANGLE ; Oh-Cah-Oh
1271  1272  1273  1     110.00   125.52   ; Cah-Oh-H
1271  1272  1316  1     98.04    KANGLE ; Cah-Oh-Cah
1271  1272  1321  1     98.04    KANGLE ; Cah-Oh-Cah
1273  1272  1316  1     110.00   125.52   ; H-Oh-Cah
1273  1272  1321  1     110.00   125.52   ; H-Oh-Cah
1316  1272  1321  1     98.17    KANGLE ; Cah-Oh-Cah
1275  1274  1631  1     110.00   125.52   ; H-Oh-Cah
1275  1274  1636  1     110.00   125.52   ; H-Oh-Cah
1275  1274  1681  1     110.00   125.52   ; H-Oh-Cah
1631  1274  1636  1     98.33    KANGLE ; Cah-Oh-Cah
1631  1274  1681  1     98.04    KANGLE ; Cah-Oh-Cah
1636  1274  1681  1     98.02    KANGLE ; Cah-Oh-Cah
869   1276  914   1     98.29    KANGLE ; Oh-Cah-Oh
869   1276  919   1     98.32    KANGLE ; Oh-Cah-Oh
869   1276  1227  1     81.65    KANGLE ; Oh-Cah-Oh
869   1276  1232  1     81.62    KANGLE ; Oh-Cah-Oh
869   1276  1277  1     179.68   KANGLE ; Oh-Cah-Oh
914   1276  919   1     98.60    KANGLE ; Oh-Cah-Oh
914   1276  1227  1     81.50    KANGLE ; Oh-Cah-Oh
914   1276  1232  1     179.58   KANGLE ; Oh-Cah-Oh
914   1276  1277  1     81.66    KANGLE ; Oh-Cah-Oh
919   1276  1227  1     179.90   KANGLE ; Oh-Cah-Oh
919   1276  1232  1     81.81    KANGLE ; Oh-Cah-Oh
919   1276  1277  1     82.00    KANGLE ; Oh-Cah-Oh
1227  1276  1232  1     98.09    KANGLE ; Oh-Cah-Oh
1227  1276  1277  1     98.03    KANGLE ; Oh-Cah-Oh
1232  1276  1277  1     98.43    KANGLE ; Oh-Cah-Oh
1276  1277  1278  1     110.00   125.52   ; Cah-Oh-H
1276  1277  1321  1     98.23    KANGLE ; Cah-Oh-Cah
1276  1277  1326  1     97.83    KANGLE ; Cah-Oh-Cah
1278  1277  1321  1     110.00   125.52   ; H-Oh-Cah
1278  1277  1326  1     110.00   125.52   ; H-Oh-Cah
1321  1277  1326  1     98.33    KANGLE ; Cah-Oh-Cah
1280  1279  1636  1     110.00   125.52   ; H-Oh-Cah
1280  1279  1641  1     110.00   125.52   ; H-Oh-Cah
1280  1279  1686  1     110.00   125.52   ; H-Oh-Cah
1636  1279  1641  1     98.17    KANGLE ; Cah-Oh-Cah
1636  1279  1686  1     98.04    KANGLE ; Cah-Oh-Cah
1641  1279  1686  1     98.04    KANGLE ; Cah-Oh-Cah
874   1281  919   1     98.32    KANGLE ; Oh-Cah-Oh
874   1281  924   1     98.32    KANGLE ; Oh-Cah-Oh
874   1281  1232  1     81.62    KANGLE ; Oh-Cah-Oh
874   1281  1237  1     81.62    KANGLE ; Oh-Cah-Oh
874   1281  1282  1     179.79   KANGLE ; Oh-Cah-Oh
919   1281  924   1     98.45    KANGLE ; Oh-Cah-Oh
919   1281  1232  1     81.81    KANGLE ; Oh-Cah-Oh
919   1281  1237  1     179.74   KANGLE ; Oh-Cah-Oh
919   1281  1282  1     81.82    KANGLE ; Oh-Cah-Oh
924   1281  1232  1     179.74   KANGLE ; Oh-Cah-Oh
924   1281  1237  1     81.81    KANGLE ; Oh-Cah-Oh
924   1281  1282  1     81.82    KANGLE ; Oh-Cah-Oh
1232  1281  1237  1     97.93    KANGLE ; Oh-Cah-Oh
1232  1281  1282  1     98.24    KANGLE ; Oh-Cah-Oh
1237  1281  1282  1     98.24    KANGLE ; Oh-Cah-Oh
1281  1282  1283  1     110.00   125.52   ; Cah-Oh-H
1281  1282  1326  1     98.04    KANGLE ; Cah-Oh-Cah
1281  1282  1331  1     98.04    KANGLE ; Cah-Oh-Cah
1283  1282  1326  1     110.00   125.52   ; H-Oh-Cah
1283  1282  1331  1     110.00   125.52   ; H-Oh-Cah
1326  1282  1331  1     98.17    KANGLE ; Cah-Oh-Cah
1285  1284  1641  1     110.00   125.52   ; H-Oh-Cah
1285  1284  1646  1     110.00   125.52   ; H-Oh-Cah
1285  1284  1691  1     110.00   125.52   ; H-Oh-Cah
1641  1284  1646  1     98.33    KANGLE ; Cah-Oh-Cah
1641  1284  1691  1     98.04    KANGLE ; Cah-Oh-Cah
1646  1284  1691  1     98.02    KANGLE ; Cah-Oh-Cah
879   1286  924   1     98.29    KANGLE ; Oh-Cah-Oh
879   1286  929   1     98.32    KANGLE ; Oh-Cah-Oh
879   1286  1237  1     81.65    KANGLE ; Oh-Cah-Oh
879   1286  1242  1     81.62    KANGLE ; Oh-Cah-Oh
879   1286  1287  1     179.68   KANGLE ; Oh-Cah-Oh
924   1286  929   1     98.60    KANGLE ; Oh-Cah-Oh
924   1286  1237  1     81.50    KANGLE ; Oh-Cah-Oh
924   1286  1242  1     179.58   KANGLE ; Oh-Cah-Oh
924   1286  1287  1     81.66    KANGLE ; Oh-Cah-Oh
929   1286  1237  1     179.90   KANGLE ; Oh-Cah-Oh
929   1286  1242  1     81.81    KANGLE ; Oh-Cah-Oh
929   1286  1287  1     82.00    KANGLE ; Oh-Cah-Oh
1237  1286  1242  1     98.09    KANGLE ; Oh-Cah-Oh
1237  1286  1287  1     98.03    KANGLE ; Oh-Cah-Oh
1242  1286  1287  1     98.43    KANGLE ; Oh-Cah-Oh
1286  1287  1288  1     110.00   125.52   ; Cah-Oh-H
1286  1287  1331  1     98.23    KANGLE ; Cah-Oh-Cah
1286  1287  1336  1     97.83    KANGLE ; Cah-Oh-Cah
1288  1287  1331  1     110.00   125.52   ; H-Oh-Cah
1288  1287  1336  1     110.00   125.52   ; H-Oh-Cah
1331  1287  1336  1     98.33    KANGLE ; Cah-Oh-Cah
1290  1289  1646  1     110.00   125.52   ; H-Oh-Cah
1290  1289  1651  1     110.00   125.52   ; H-Oh-Cah
1290  1289  1696  1     110.00   125.52   ; H-Oh-Cah
1646  1289  1651  1     98.17    KANGLE ; Cah-Oh-Cah
1646  1289  1696  1     98.04    KANGLE ; Cah-Oh-Cah
1651  1289  1696  1     98.04    KANGLE ; Cah-Oh-Cah
884   1291  929   1     98.32    KANGLE ; Oh-Cah-Oh
884   1291  934   1     98.32    KANGLE ; Oh-Cah-Oh
884   1291  1242  1     81.62    KANGLE ; Oh-Cah-Oh
884   1291  1247  1     81.62    KANGLE ; Oh-Cah-Oh
884   1291  1292  1     179.79   KANGLE ; Oh-Cah-Oh
929   1291  934   1     98.45    KANGLE ; Oh-Cah-Oh
929   1291  1242  1     81.81    KANGLE ; Oh-Cah-Oh
929   1291  1247  1     179.74   KANGLE ; Oh-Cah-Oh
929   1291  1292  1     81.82    KANGLE ; Oh-Cah-Oh
934   1291  1242  1     179.74   KANGLE ; Oh-Cah-Oh
934   1291  1247  1     81.81    KANGLE ; Oh-Cah-Oh
934   1291  1292  1     81.82    KANGLE ; Oh-Cah-Oh
1242  1291  1247  1     97.93    KANGLE ; Oh-Cah-Oh
1242  1291  1292  1     98.24    KANGLE ; Oh-Cah-Oh
1247  1291  1292  1     98.24    KANGLE ; Oh-Cah-Oh
1291  1292  1293  1     110.00   125.52   ; Cah-Oh-H
1291  1292  1336  1     98.04    KANGLE ; Cah-Oh-Cah
1291  1292  1341  1     98.04    KANGLE ; Cah-Oh-Cah
1293  1292  1336  1     110.00   125.52   ; H-Oh-Cah
1293  1292  1341  1     110.00   125.52   ; H-Oh-Cah
1336  1292  1341  1     98.17    KANGLE ; Cah-Oh-Cah
1295  1294  1651  1     110.00   125.52   ; H-Oh-Cah
1295  1294  1656  1     110.00   125.52   ; H-Oh-Cah
1295  1294  1701  1     110.00   125.52   ; H-Oh-Cah
1651  1294  1656  1     98.33    KANGLE ; Cah-Oh-Cah
1651  1294  1701  1     98.04    KANGLE ; Cah-Oh-Cah
1656  1294  1701  1     98.02    KANGLE ; Cah-Oh-Cah
889   1296  934   1     98.29    KANGLE ; Oh-Cah-Oh
889   1296  939   1     98.32    KANGLE ; Oh-Cah-Oh
889   1296  1247  1     81.65    KANGLE ; Oh-Cah-Oh
889   1296  1252  1     81.62    KANGLE ; Oh-Cah-Oh
889   1296  1297  1     179.68   KANGLE ; Oh-Cah-Oh
934   1296  939   1     98.60    KANGLE ; Oh-Cah-Oh
934   1296  1247  1     81.50    KANGLE ; Oh-Cah-Oh
934   1296  1252  1     179.58   KANGLE ; Oh-Cah-Oh
934   1296  1297  1     81.66    KANGLE ; Oh-Cah-Oh
939   1296  1247  1     179.90   KANGLE ; Oh-Cah-Oh
939   1296  1252  1     81.81    KANGLE ; Oh-Cah-Oh
939   1296  1297  1     82.00    KANGLE ; Oh-Cah-Oh
1247  1296  1252  1     98.09    KANGLE ; Oh-Cah-Oh
1247  1296  1297  1     98.03    KANGLE ; Oh-Cah-Oh
1252  1296  1297  1     98.43    KANGLE ; Oh-Cah-Oh
1296  1297  1298  1     110.00   125.52   ; Cah-Oh-H
1296  1297  1341  1     98.23    KANGLE ; Cah-Oh-Cah
1296  1297  1346  1     97.83    KANGLE ; Cah-Oh-Cah
1298  1297  1341  1     110.00   125.52   ; H-Oh-Cah
1298  1297  1346  1     110.00   125.52   ; H-Oh-Cah
1341  1297  1346  1     98.33    KANGLE ; Cah-Oh-Cah
1300  1299  1656  1     110.00   125.52   ; H-Oh-Cah
1300  1299  1661  1     110.00   125.52   ; H-Oh-Cah
1300  1299  1706  1     110.00   125.52   ; H-Oh-Cah
1656  1299  1661  1     98.17    KANGLE ; Cah-Oh-Cah
1656  1299  1706  1     98.04    KANGLE ; Cah-Oh-Cah
1661  1299  1706  1     98.04    KANGLE ; Cah-Oh-Cah
894   1301  939   1     98.32    KANGLE ; Oh-Cah-Oh
894   1301  944   1     98.32    KANGLE ; Oh-Cah-Oh
894   1301  1252  1     81.62    KANGLE ; Oh-Cah-Oh
894   1301  1257  1     81.62    KANGLE ; Oh-Cah-Oh
894   1301  1302  1     179.79   KANGLE ; Oh-Cah-Oh
939   1301  944   1     98.45    KANGLE ; Oh-Cah-Oh
939   1301  1252  1     81.81    KANGLE ; Oh-Cah-Oh
939   1301  1257  1     179.74   KANGLE ; Oh-Cah-Oh
939   1301  1302  1     81.82    KANGLE ; Oh-Cah-Oh
944   1301  1252  1     179.74   KANGLE ; Oh-Cah-Oh
944   1301  1257  1     81.81    KANGLE ; Oh-Cah-Oh
944   1301  1302  1     81.82    KANGLE ; Oh-Cah-Oh
1252  1301  1257  1     97.93    KANGLE ; Oh-Cah-Oh
1252  1301  1302  1     98.24    KANGLE ; Oh-Cah-Oh
1257  1301  1302  1     98.24    KANGLE ; Oh-Cah-Oh
1301  1302  1303  1     110.00   125.52   ; Cah-Oh-H
1301  1302  1306  1     98.03    KANGLE ; Cah-Oh-Cah
1301  1302  1346  1     98.04    KANGLE ; Cah-Oh-Cah
1303  1302  1306  1     110.00   125.52   ; H-Oh-Cah
1303  1302  1346  1     110.00   125.52   ; H-Oh-Cah
1306  1302  1346  1     98.25    KANGLE ; Cah-Oh-Cah
1305  1304  1621  1     110.00   125.52   ; H-Oh-Cah
1305  1304  1661  1     110.00   125.52   ; H-Oh-Cah
1305  1304  1666  1     110.00   125.52   ; H-Oh-Cah
1621  1304  1661  1     98.25    KANGLE ; Cah-Oh-Cah
1621  1304  1666  1     97.94    KANGLE ; Cah-Oh-Cah
1661  1304  1666  1     98.14    KANGLE ; Cah-Oh-Cah
944   1306  949   1     98.61    KANGLE ; Oh-Cah-Oh
944   1306  989   1     98.41    KANGLE ; Oh-Cah-Oh
944   1306  1262  1     81.91    KANGLE ; Oh-Cah-Oh
944   1306  1302  1     81.74    KANGLE ; Oh-Cah-Oh
944   1306  1307  1     179.76   KANGLE ; Oh-Cah-Oh
949   1306  989   1     98.28    KANGLE ; Oh-Cah-Oh
949   1306  1262  1     81.81    KANGLE ; Oh-Cah-Oh
949   1306  1302  1     179.65   KANGLE ; Oh-Cah-Oh
949   1306  1307  1     81.62    KANGLE ; Oh-Cah-Oh
989   1306  1262  1     179.65   KANGLE ; Oh-Cah-Oh
989   1306  1302  1     81.65    KANGLE ; Oh-Cah-Oh
989   1306  1307  1     81.64    KANGLE ; Oh-Cah-Oh
1262  1306  1302  1     98.25    KANGLE ; Oh-Cah-Oh
1262  1306  1307  1     98.04    KANGLE ; Oh-Cah-Oh
1302  1306  1307  1     98.03    KANGLE ; Oh-Cah-Oh
1306  1307  1308  1     110.00   125.52   ; Cah-Oh-H
1306  1307  1351  1     98.24    KANGLE ; Cah-Oh-Cah
1306  1307  1356  1     98.24    KANGLE ; Cah-Oh-Cah
1308  1307  1351  1     110.00   125.52   ; H-Oh-Cah
1308  1307  1356  1     110.00   125.52   ; H-Oh-Cah
1351  1307  1356  1     97.93    KANGLE ; Cah-Oh-Cah
1310  1309  1666  1     110.00   125.52   ; H-Oh-Cah
1310  1309  1671  1     110.00   125.52   ; H-Oh-Cah
1310  1309  1716  1     110.00   125.52   ; H-Oh-Cah
1666  1309  1671  1     97.93    KANGLE ; Cah-Oh-Cah
1666  1309  1716  1     98.24    KANGLE ; Cah-Oh-Cah
1671  1309  1716  1     98.24    KANGLE ; Cah-Oh-Cah
904   1311  949   1     98.51    KANGLE ; Oh-Cah-Oh
904   1311  954   1     98.49    KANGLE ; Oh-Cah-Oh
904   1311  1262  1     81.82    KANGLE ; Oh-Cah-Oh
904   1311  1267  1     81.82    KANGLE ; Oh-Cah-Oh
904   1311  1312  1     179.79   KANGLE ; Oh-Cah-Oh
949   1311  954   1     98.36    KANGLE ; Oh-Cah-Oh
949   1311  1262  1     81.81    KANGLE ; Oh-Cah-Oh
949   1311  1267  1     179.66   KANGLE ; Oh-Cah-Oh
949   1311  1312  1     81.62    KANGLE ; Oh-Cah-Oh
954   1311  1262  1     179.62   KANGLE ; Oh-Cah-Oh
954   1311  1267  1     81.65    KANGLE ; Oh-Cah-Oh
954   1311  1312  1     81.65    KANGLE ; Oh-Cah-Oh
1262  1311  1267  1     98.17    KANGLE ; Oh-Cah-Oh
1262  1311  1312  1     98.04    KANGLE ; Oh-Cah-Oh
1267  1311  1312  1     98.04    KANGLE ; Oh-Cah-Oh
1311  1312  1313  1     110.00   125.52   ; Cah-Oh-H
1311  1312  1356  1     98.24    KANGLE ; Cah-Oh-Cah
1311  1312  1361  1     98.22    KANGLE ; Cah-Oh-Cah
1313  1312  1356  1     110.00   125.52   ; H-Oh-Cah
1313  1312  1361  1     110.00   125.52   ; H-Oh-Cah
1356  1312  1361  1     98.09    KANGLE ; Cah-Oh-Cah
1315  1314  1671  1     110.00   125.52   ; H-Oh-Cah
1315  1314  1676  1     110.00   125.52   ; H-Oh-Cah
1315  1314  1721  1     110.00   125.52   ; H-Oh-Cah
1671  1314  1676  1     98.09    KANGLE ; Cah-Oh-Cah
1671  1314  1721  1     98.22    KANGLE ; Cah-Oh-Cah
1676  1314  1721  1     98.24    KANGLE ; Cah-Oh-Cah
909   1316  954   1     98.51    KANGLE ; Oh-Cah-Oh
909   1316  959   1     98.51    KANGLE ; Oh-Cah-Oh
909   1316  1267  1     81.85    KANGLE ; Oh-Cah-Oh
909   1316  1272  1     81.82    KANGLE ; Oh-Cah-Oh
909   1316  1317  1     179.79   KANGLE ; Oh-Cah-Oh
954   1316  959   1     98.20    KANGLE ; Oh-Cah-Oh
954   1316  1267  1     81.65    KANGLE ; Oh-Cah-Oh
954   1316  1272  1     179.66   KANGLE ; Oh-Cah-Oh
954   1316  1317  1     81.62    KANGLE ; Oh-Cah-Oh
959   1316  1267  1     179.63   KANGLE ; Oh-Cah-Oh
959   1316  1272  1     81.81    KANGLE ; Oh-Cah-Oh
959   1316  1317  1     81.62    KANGLE ; Oh-Cah-Oh
1267  1316  1272  1     98.33    KANGLE ; Oh-Cah-Oh
1267  1316  1317  1     98.02    KANGLE ; Oh-Cah-Oh
1272  1316  1317  1     98.04    KANGLE ; Oh-Cah-Oh
1316  1317  1318  1     110.00   125.52   ; Cah-Oh-H
1316  1317  1361  1     98.24    KANGLE ; Cah-Oh-Cah
1316  1317  1366  1     98.24    KANGLE ; Cah-Oh-Cah
1318  1317  1361  1     110.00   125.52   ; H-Oh-Cah
1318  1317  1366  1     110.00   125.52   ; H-Oh-Cah
1361  1317  1366  1     97.93    KANGLE ; Cah-Oh-Cah
1320  1319  1676  1     110.00   125.52   ; H-Oh-Cah
1320  1319  1681  1     110.00   125.52   ; H-Oh-Cah
1320  1319  1726  1     110.00   125.52   ; H-Oh-Cah
1676  1319  1681  1     97.93    KANGLE ; Cah-Oh-Cah
1676  1319  1726  1     98.24    KANGLE ; Cah-Oh-Cah
1681  1319  1726  1     98.24    KANGLE ; Cah-Oh-Cah
914   1321  959   1     98.51    KANGLE ; Oh-Cah-Oh
914   1321  964   1     98.49    KANGLE ; Oh-Cah-Oh
914   1321  1272  1     81.82    KANGLE ; Oh-Cah-Oh
914   1321  1277  1     81.82    KANGLE ; Oh-Cah-Oh
914   1321  1322  1     179.79   KANGLE ; Oh-Cah-Oh
959   1321  964   1     98.36    KANGLE ; Oh-Cah-Oh
959   1321  1272  1     81.81    KANGLE ; Oh-Cah-Oh
959   1321  1277  1     179.66   KANGLE ; Oh-Cah-Oh
959   1321  1322  1     81.62    KANGLE ; Oh-Cah-Oh
964   1321  1272  1     179.62   KANGLE ; Oh-Cah-Oh
964   1321  1277  1     81.65    KANGLE ; Oh-Cah-Oh
964   1321  1322  1     81.65    KANGLE ; Oh-Cah-Oh
1272  1321  1277  1     98.17    KANGLE ; Oh-Cah-Oh
1272  1321  1322  1     98.04    KANGLE ; Oh-Cah-Oh
1277  1321  1322  1     98.04    KANGLE ; Oh-Cah-Oh
1321  1322  1323  1     110.00   125.52   ; Cah-Oh-H
1321  1322  1366  1     98.24    KANGLE ; Cah-Oh-Cah
1321  1322  1371  1     98.22    KANGLE ; Cah-Oh-Cah
1323  1322  1366  1     110.00   125.52   ; H-Oh-Cah
1323  1322  1371  1     110.00   125.52   ; H-Oh-Cah
1366  1322  1371  1     98.09    KANGLE ; Cah-Oh-Cah
1325  1324  1681  1     110.00   125.52   ; H-Oh-Cah
1325  1324  1686  1     110.00   125.52   ; H-Oh-Cah
1325  1324  1731  1     110.00   125.52   ; H-Oh-Cah
1681  1324  1686  1     98.09    KANGLE ; Cah-Oh-Cah
1681  1324  1731  1     98.22    KANGLE ; Cah-Oh-Cah
1686  1324  1731  1     98.24    KANGLE ; Cah-Oh-Cah
919   1326  964   1     98.51    KANGLE ; Oh-Cah-Oh
919   1326  969   1     98.51    KANGLE ; Oh-Cah-Oh
919   1326  1277  1     81.85    KANGLE ; Oh-Cah-Oh
919   1326  1282  1     81.82    KANGLE ; Oh-Cah-Oh
919   1326  1327  1     179.79   KANGLE ; Oh-Cah-Oh
964   1326  969   1     98.20    KANGLE ; Oh-Cah-Oh
964   1326  1277  1     81.65    KANGLE ; Oh-Cah-Oh
964   1326  1282  1     179.66   KANGLE ; Oh-Cah-Oh
964   1326  1327  1     81.62    KANGLE ; Oh-Cah-Oh
969   1326  1277  1     179.63   KANGLE ; Oh-Cah-Oh
969   1326  1282  1     81.81    KANGLE ; Oh-Cah-Oh
969   1326  1327  1     81.62    KANGLE ; Oh-Cah-Oh
1277  1326  1282  1     98.33    KANGLE ; Oh-Cah-Oh
1277  1326  1327  1     98.02    KANGLE ; Oh-Cah-Oh
1282  1326  1327  1     98.04    KANGLE ; Oh-Cah-Oh
1326  1327  1328  1     110.00   125.52   ; Cah-Oh-H
1326  1327  1371  1     98.24    KANGLE ; Cah-Oh-Cah
1326  1327  1376  1     98.24    KANGLE ; Cah-Oh-Cah
1328  1327  1371  1     110.00   125.52   ; H-Oh-Cah
1328  1327  1376  1     110.00   125.52   ; H-Oh-Cah
1371  1327  1376  1     97.93    KANGLE ; Cah-Oh-Cah
1330  1329  1686  1     110.00   125.52   ; H-Oh-Cah
1330  1329  1691  1     110.00   125.52   ; H-Oh-Cah
1330  1329  1736  1     110.00   125.52   ; H-Oh-Cah
1686  1329  1691  1     97.93    KANGLE ; Cah-Oh-Cah
1686  1329  1736  1     98.24    KANGLE ; Cah-Oh-Cah
1691  1329  1736  1     98.24    KANGLE ; Cah-Oh-Cah
924   1331  969   1     98.51    KANGLE ; Oh-Cah-Oh
924   1331  974   1     98.49    KANGLE ; Oh-Cah-Oh
924   1331  1282  1     81.82    KANGLE ; Oh-Cah-Oh
924   1331  1287  1     81.82    KANGLE ; Oh-Cah-Oh
924   1331  1332  1     179.79   KANGLE ; Oh-Cah-Oh
969   1331  974   1     98.36    KANGLE ; Oh-Cah-Oh
969   1331  1282  1     81.81    KANGLE ; Oh-Cah-Oh
969   1331  1287  1     179.66   KANGLE ; Oh-Cah-Oh
969   1331  1332  1     81.62    KANGLE ; Oh-Cah-Oh
974   1331  1282  1     179.62   KANGLE ; Oh-Cah-Oh
974   1331  1287  1     81.65    KANGLE ; Oh-Cah-Oh
974   1331  1332  1     81.65    KANGLE ; Oh-Cah-Oh
1282  1331  1287  1     98.17    KANGLE ; Oh-Cah-Oh
1282  1331  1332  1     98.04    KANGLE ; Oh-Cah-Oh
1287  1331  1332  1     98.04    KANGLE ; Oh-Cah-Oh
1331  1332  1333  1     110.00   125.52   ; Cah-Oh-H
1331  1332  1376  1     98.24    KANGLE ; Cah-Oh-Cah
1331  1332  1381  1     98.22    KANGLE ; Cah-Oh-Cah
1333  1332  1376  1     110.00   125.52   ; H-Oh-Cah
1333  1332  1381  1     110.00   125.52   ; H-Oh-Cah
1376  1332  1381  1     98.09    KANGLE ; Cah-Oh-Cah
1335  1334  1691  1     110.00   125.52   ; H-Oh-Cah
1335  1334  1696  1     110.00   125.52   ; H-Oh-Cah
1335  1334  1741  1     110.00   125.52   ; H-Oh-Cah
1691  1334  1696  1     98.09    KANGLE ; Cah-Oh-Cah
1691  1334  1741  1     98.22    KANGLE ; Cah-Oh-Cah
1696  1334  1741  1     98.24    KANGLE ; Cah-Oh-Cah
929   1336  974   1     98.51    KANGLE ; Oh-Cah-Oh
929   1336  979   1     98.51    KANGLE ; Oh-Cah-Oh
929   1336  1287  1     81.85    KANGLE ; Oh-Cah-Oh
929   1336  1292  1     81.82    KANGLE ; Oh-Cah-Oh
929   1336  1337  1     179.79   KANGLE ; Oh-Cah-Oh
974   1336  979   1     98.20    KANGLE ; Oh-Cah-Oh
974   1336  1287  1     81.65    KANGLE ; Oh-Cah-Oh
974   1336  1292  1     179.66   KANGLE ; Oh-Cah-Oh
974   1336  1337  1     81.62    KANGLE ; Oh-Cah-Oh
979   1336  1287  1     179.63   KANGLE ; Oh-Cah-Oh
979   1336  1292  1     81.81    KANGLE ; Oh-Cah-Oh
979   1336  1337  1     81.62    KANGLE ; Oh-Cah-Oh
1287  1336  1292  1     98.33    KANGLE ; Oh-Cah-Oh
1287  1336  1337  1     98.02    KANGLE ; Oh-Cah-Oh
1292  1336  1337  1     98.04    KANGLE ; Oh-Cah-Oh
1336  1337  1338  1     110.00   125.52   ; Cah-Oh-H
1336  1337  1381  1     98.24    KANGLE ; Cah-Oh-Cah
1336  1337  1386  1     98.24    KANGLE ; Cah-Oh-Cah
1338  1337  1381  1     110.00   125.52   ; H-Oh-Cah
1338  1337  1386  1     110.00   125.52   ; H-Oh-Cah
1381  1337  1386  1     97.93    KANGLE ; Cah-Oh-Cah
1340  1339  1696  1     110.00   125.52   ; H-Oh-Cah
1340  1339  1701  1     110.00   125.52   ; H-Oh-Cah
1340  1339  1746  1     110.00   125.52   ; H-Oh-Cah
1696  1339  1701  1     97.93    KANGLE ; Cah-Oh-Cah
1696  1339  1746  1     98.24    KANGLE ; Cah-Oh-Cah
1701  1339  1746  1     98.24    KANGLE ; Cah-Oh-Cah
934   1341  979   1     98.51    KANGLE ; Oh-Cah-Oh
934   1341  984   1     98.49    KANGLE ; Oh-Cah-Oh
934   1341  1292  1     81.82    KANGLE ; Oh-Cah-Oh
934   1341  1297  1     81.82    KANGLE ; Oh-Cah-Oh
934   1341  1342  1     179.79   KANGLE ; Oh-Cah-Oh
979   1341  984   1     98.36    KANGLE ; Oh-Cah-Oh
979   1341  1292  1     81.81    KANGLE ; Oh-Cah-Oh
979   1341  1297  1     179.66   KANGLE ; Oh-Cah-Oh
979   1341  1342  1     81.62    KANGLE ; Oh-Cah-Oh
984   1341  1292  1     179.62   KANGLE ; Oh-Cah-Oh
984   1341  1297  1     81.65    KANGLE ; Oh-Cah-Oh
984   1341  1342  1     81.65    KANGLE ; Oh-Cah-Oh
1292  1341  1297  1     98.17    KANGLE ; Oh-Cah-Oh
1292  1341  1342  1     98.04    KANGLE ; Oh-Cah-Oh
1297  1341  1342  1     98.04    KANGLE ; Oh-Cah-Oh
1341  1342  1343  1     110.00   125.52   ; Cah-Oh-H
1341  1342  1386  1     98.24    KANGLE ; Cah-Oh-Cah
1341  1342  1391  1     98.22    KANGLE ; Cah-Oh-Cah
1343  1342  1386  1     110.00   125.52   ; H-Oh-Cah
1343  1342  1391  1     110.00   125.52   ; H-Oh-Cah
1386  1342  1391  1     98.09    KANGLE ; Cah-Oh-Cah
1345  1344  1701  1     110.00   125.52   ; H-Oh-Cah
1345  1344  1706  1     110.00   125.52   ; H-Oh-Cah
1345  1344  1751  1     110.00   125.52   ; H-Oh-Cah
1701  1344  1706  1     98.09    KANGLE ; Cah-Oh-Cah
1701  1344  1751  1     98.22    KANGLE ; Cah-Oh-Cah
1706  1344  1751  1     98.24    KANGLE ; Cah-Oh-Cah
939   1346  984   1     98.51    KANGLE ; Oh-Cah-Oh
939   1346  989   1     98.51    KANGLE ; Oh-Cah-Oh
939   1346  1297  1     81.85    KANGLE ; Oh-Cah-Oh
939   1346  1302  1     81.82    KANGLE ; Oh-Cah-Oh
939   1346  1347  1     179.79   KANGLE ; Oh-Cah-Oh
984   1346  989   1     98.20    KANGLE ; Oh-Cah-Oh
984   1346  1297  1     81.65    KANGLE ; Oh-Cah-Oh
984   1346  1302  1     179.66   KANGLE ; Oh-Cah-Oh
984   1346  1347  1     81.62    KANGLE ; Oh-Cah-Oh
989   1346  1297  1     179.63   KANGLE ; Oh-Cah-Oh
989   1346  1302  1     81.81    KANGLE ; Oh-Cah-Oh
989   1346  1347  1     81.62    KANGLE ; Oh-Cah-Oh
1297  1346  1302  1     98.33    KANGLE ; Oh-Cah-Oh
1297  1346  1347  1     98.02    KANGLE ; Oh-Cah-Oh
1302  1346  1347  1     98.04    KANGLE ; Oh-Cah-Oh
1346  1347  1348  1     110.00   125.52   ; Cah-Oh-H
1346  1347  1351  1     98.23    KANGLE ; Cah-Oh-Cah
1346  1347  1391  1     98.24    KANGLE ; Cah-Oh-Cah
1348  1347  1351  1     110.00   125.52   ; H-Oh-Cah
1348  1347  1391  1     110.00   125.52   ; H-Oh-Cah
1351  1347  1391  1     98.01    KANGLE ; Cah-Oh-Cah
1350  1349  1666  1     110.00   125.52   ; H-Oh-Cah
1350  1349  1706  1     110.00   125.52   ; H-Oh-Cah
1350  1349  1711  1     110.00   125.52   ; H-Oh-Cah
1666  1349  1706  1     98.01    KANGLE ; Cah-Oh-Cah
1666  1349  1711  1     98.14    KANGLE ; Cah-Oh-Cah
1706  1349  1711  1     98.33    KANGLE ; Cah-Oh-Cah
989   1351  994   1     98.41    KANGLE ; Oh-Cah-Oh
989   1351  1034  1     98.21    KANGLE ; Oh-Cah-Oh
989   1351  1307  1     81.71    KANGLE ; Oh-Cah-Oh
989   1351  1347  1     81.54    KANGLE ; Oh-Cah-Oh
989   1351  1352  1     179.58   KANGLE ; Oh-Cah-Oh
994   1351  1034  1     98.53    KANGLE ; Oh-Cah-Oh
994   1351  1307  1     81.81    KANGLE ; Oh-Cah-Oh
994   1351  1347  1     179.82   KANGLE ; Oh-Cah-Oh
994   1351  1352  1     82.00    KANGLE ; Oh-Cah-Oh
1034  1351  1307  1     179.66   KANGLE ; Oh-Cah-Oh
1034  1351  1347  1     81.65    KANGLE ; Oh-Cah-Oh
1034  1351  1352  1     81.65    KANGLE ; Oh-Cah-Oh
1307  1351  1347  1     98.01    KANGLE ; Oh-Cah-Oh
1307  1351  1352  1     98.43    KANGLE ; Oh-Cah-Oh
1347  1351  1352  1     98.04    KANGLE ; Oh-Cah-Oh
1351  1352  1353  1     110.00   125.52   ; Cah-Oh-H
1351  1352  1396  1     98.23    KANGLE ; Cah-Oh-Cah
1351  1352  1401  1     97.83    KANGLE ; Cah-Oh-Cah
1353  1352  1396  1     110.00   125.52   ; H-Oh-Cah
1353  1352  1401  1     110.00   125.52   ; H-Oh-Cah
1396  1352  1401  1     98.33    KANGLE ; Cah-Oh-Cah
1355  1354  1711  1     110.00   125.52   ; H-Oh-Cah
1355  1354  1716  1     110.00   125.52   ; H-Oh-Cah
1355  1354  1761  1     110.00   125.52   ; H-Oh-Cah
1711  1354  1716  1     98.17    KANGLE ; Cah-Oh-Cah
1711  1354  1761  1     98.04    KANGLE ; Cah-Oh-Cah
1716  1354  1761  1     98.04    KANGLE ; Cah-Oh-Cah
949   1356  994   1     98.32    KANGLE ; Oh-Cah-Oh
949   1356  999   1     98.32    KANGLE ; Oh-Cah-Oh
949   1356  1307  1     81.62    KANGLE ; Oh-Cah-Oh
949   1356  1312  1     81.62    KANGLE ; Oh-Cah-Oh
949   1356  1357  1     179.79   KANGLE ; Oh-Cah-Oh
994   1356  999   1     98.45    KANGLE ; Oh-Cah-Oh
994   1356  1307  1     81.81    KANGLE ; Oh-Cah-Oh
994   1356  1312  1     179.74   KANGLE ; Oh-Cah-Oh
994   1356  1357  1     81.82    KANGLE ; Oh-Cah-Oh
999   1356  1307  1     179.74   KANGLE ; Oh-Cah-Oh
999   1356  1312  1     81.81    KANGLE ; Oh-Cah-Oh
999   1356  1357  1     81.82    KANGLE ; Oh-Cah-Oh
1307  1356  1312  1     97.93    KANGLE ; Oh-Cah-Oh
1307  1356  1357  1     98.24    KANGLE ; Oh-Cah-Oh
1312  1356  1357  1     98.24    KANGLE ; Oh-Cah-Oh
1356  1357  1358  1     110.00   125.52   ; Cah-Oh-H
1356  1357  1401  1     98.04    KANGLE ; Cah-Oh-Cah
1356  1357  1406  1     98.04    KANGLE ; Cah-Oh-Cah
1358  1357  1401  1     110.00   125.52   ; H-Oh-Cah
1358  1357  1406  1     110.00   125.52   ; H-Oh-Cah
1401  1357  1406  1     98.17    KANGLE ; Cah-Oh-Cah
1360  1359  1716  1     110.00   125.52   ; H-Oh-Cah
1360  1359  1721  1     110.00   125.52   ; H-Oh-Cah
1360  1359  1766  1     110.00   125.52   ; H-Oh-Cah
1716  1359  1721  1     98.33    KANGLE ; Cah-Oh-Cah
1716  1359  1766  1     98.04    KANGLE ; Cah-Oh-Cah
1721  1359  1766  1     98.02    KANGLE ; Cah-Oh-Cah
954   1361  999   1     98.29    KANGLE ; Oh-Cah-Oh
954   1361  1004  1     98.32    KANGLE ; Oh-Cah-Oh
954   1361  1312  1     81.65    KANGLE ; Oh-Cah-Oh
954   1361  1317  1     81.62    KANGLE ; Oh-Cah-Oh
954   1361  1362  1     179.68   KANGLE ; Oh-Cah-Oh
999   1361  1004  1     98.60    KANGLE ; Oh-Cah-Oh
999   1361  1312  1     81.50    KANGLE ; Oh-Cah-Oh
999   1361  1317  1     179.58   KANGLE ; Oh-Cah-Oh
999   1361  1362  1     81.66    KANGLE ; Oh-Cah-Oh
1004  1361  1312  1     179.90   KANGLE ; Oh-Cah-Oh
1004  1361  1317  1     81.81    KANGLE ; Oh-Cah-Oh
1004  1361  1362  1     82.00    KANGLE ; Oh-Cah-Oh
1312  1361  1317  1     98.09    KANGLE ; Oh-Cah-Oh
1312  1361  1362  1     98.03    KANGLE ; Oh-Cah-Oh
1317  1361  1362  1     98.43    KANGLE ; Oh-Cah-Oh
1361  1362  1363  1     110.00   125.52   ; Cah-Oh-H
1361  1362  1406  1     98.23    KANGLE ; Cah-Oh-Cah
1361  1362  1411  1     97.83    KANGLE ; Cah-Oh-Cah
1363  1362  1406  1     110.00   125.52   ; H-Oh-Cah
1363  1362  1411  1     110.00   125.52   ; H-Oh-Cah
1406  1362  1411  1     98.33    KANGLE ; Cah-Oh-Cah
1365  1364  1721  1     110.00   125.52   ; H-Oh-Cah
1365  1364  1726  1     110.00   125.52   ; H-Oh-Cah
1365  1364  1771  1     110.00   125.52   ; H-Oh-Cah
1721  1364  1726  1     98.17    KANGLE ; Cah-Oh-Cah
1721  1364  1771  1     98.04    KANGLE ; Cah-Oh-Cah
1726  1364  1771  1     98.04    KANGLE ; Cah-Oh-Cah
959   1366  1004  1     98.32    KANGLE ; Oh-Cah-Oh
959   1366  1009  1     98.32    KANGLE ; Oh-Cah-Oh
959   1366  1317  1     81.62    KANGLE ; Oh-Cah-Oh
959   1366  1322  1     81.62    KANGLE ; Oh-Cah-Oh
959   1366  1367  1     179.79   KANGLE ; Oh-Cah-Oh
1004  1366  1009  1     98.45    KANGLE ; Oh-Cah-Oh
1004  1366  1317  1     81.81    KANGLE ; Oh-Cah-Oh
1004  1366  1322  1     179.74   KANGLE ; Oh-Cah-Oh
1004  1366  1367  1     81.82    KANGLE ; Oh-Cah-Oh
1009  1366  1317  1     179.74   KANGLE ; Oh-Cah-Oh
1009  1366  1322  1     81.81    KANGLE ; Oh-Cah-Oh
1009  1366  1367  1     81.82    KANGLE ; Oh-Cah-Oh
1317  1366  1322  1     97.93    KANGLE ; Oh-Cah-Oh
1317  1366  1367  1     98.24    KANGLE ; Oh-Cah-Oh
1322  1366  1367  1     98.24    KANGLE ; Oh-Cah-Oh
1366  1367  1368  1     110.00   125.52   ; Cah-Oh-H
1366  1367  1411  1     98.04    KANGLE ; Cah-Oh-Cah
1366  1367  1416  1     98.04    KANGLE ; Cah-Oh-Cah
1368  1367  1411  1     110.00   125.52   ; H-Oh-Cah
1368  1367  1416  1     110.00   125.52   ; H-Oh-Cah
1411  1367  1416  1     98.17    KANGLE ; Cah-Oh-Cah
1370  1369  1726  1     110.00   125.52   ; H-Oh-Cah
1370  1369  1731  1     110.00   125.52   ; H-Oh-Cah
1370  1369  1776  1     110.00   125.52   ; H-Oh-Cah
1726  1369  1731  1     98.33    KANGLE ; Cah-Oh-Cah
1726  1369  1776  1     98.04    KANGLE ; Cah-Oh-Cah
1731  1369  1776  1     98.02    KANGLE ; Cah-Oh-Cah
964   1371  1009  1     98.29    KANGLE ; Oh-Cah-Oh
964   1371  1014  1     98.32    KANGLE ; Oh-Cah-Oh
964   1371  1322  1     81.65    KANGLE ; Oh-Cah-Oh
964   1371  1327  1     81.62    KANGLE ; Oh-Cah-Oh
964   1371  1372  1     179.68   KANGLE ; Oh-Cah-Oh
1009  1371  1014  1     98.60    KANGLE ; Oh-Cah-Oh
1009  1371  1322  1     81.50    KANGLE ; Oh-Cah-Oh
1009  1371  1327  1     179.58   KANGLE ; Oh-Cah-Oh
1009  1371  1372  1     81.66    KANGLE ; Oh-Cah-Oh
1014  1371  1322  1     179.90   KANGLE ; Oh-Cah-Oh
1014  1371  1327  1     81.81    KANGLE ; Oh-Cah-Oh
1014  1371  1372  1     82.00    KANGLE ; Oh-Cah-Oh
1322  1371  1327  1     98.09    KANGLE ; Oh-Cah-Oh
1322  1371  1372  1     98.03    KANGLE ; Oh-Cah-Oh
1327  1371  1372  1     98.43    KANGLE ; Oh-Cah-Oh
1371  1372  1373  1     110.00   125.52   ; Cah-Oh-H
1371  1372  1416  1     98.23    KANGLE ; Cah-Oh-Cah
1371  1372  1421  1     97.83    KANGLE ; Cah-Oh-Cah
1373  1372  1416  1     110.00   125.52   ; H-Oh-Cah
1373  1372  1421  1     110.00   125.52   ; H-Oh-Cah
1416  1372  1421  1     98.33    KANGLE ; Cah-Oh-Cah
1375  1374  1731  1     110.00   125.52   ; H-Oh-Cah
1375  1374  1736  1     110.00   125.52   ; H-Oh-Cah
1375  1374  1781  1     110.00   125.52   ; H-Oh-Cah
1731  1374  1736  1     98.17    KANGLE ; Cah-Oh-Cah
1731  1374  1781  1     98.04    KANGLE ; Cah-Oh-Cah
1736  1374  1781  1     98.04    KANGLE ; Cah-Oh-Cah
969   1376  1014  1     98.32    KANGLE ; Oh-Cah-Oh
969   1376  1019  1     98.32    KANGLE ; Oh-Cah-Oh
969   1376  1327  1     81.62    KANGLE ; Oh-Cah-Oh
969   1376  1332  1     81.62    KANGLE ; Oh-Cah-Oh
969   1376  1377  1     179.79   KANGLE ; Oh-Cah-Oh
1014  1376  1019  1     98.45    KANGLE ; Oh-Cah-Oh
1014  1376  1327  1     81.81    KANGLE ; Oh-Cah-Oh
1014  1376  1332  1     179.74   KANGLE ; Oh-Cah-Oh
1014  1376  1377  1     81.82    KANGLE ; Oh-Cah-Oh
1019  1376  1327  1     179.74   KANGLE ; Oh-Cah-Oh
1019  1376  1332  1     81.81    KANGLE ; Oh-Cah-Oh
1019  1376  1377  1     81.82    KANGLE ; Oh-Cah-Oh
1327  1376  1332  1     97.93    KANGLE ; Oh-Cah-Oh
1327  1376  1377  1     98.24    KANGLE ; Oh-Cah-Oh
1332  1376  1377  1     98.24    KANGLE ; Oh-Cah-Oh
1376  1377  1378  1     110.00   125.52   ; Cah-Oh-H
1376  1377  1421  1     98.04    KANGLE ; Cah-Oh-Cah
1376  1377  1426  1     98.04    KANGLE ; Cah-Oh-Cah
1378  1377  1421  1     110.00   125.52   ; H-Oh-Cah
1378  1377  1426  1     110.00   125.52   ; H-Oh-Cah
1421  1377  1426  1     98.17    KANGLE ; Cah-Oh-Cah
1380  1379  1736  1     110.00   125.52   ; H-Oh-Cah
1380  1379  1741  1     110.00   125.52   ; H-Oh-Cah
1380  1379  1786  1     110.00   125.52   ; H-Oh-Cah
1736  1379  1741  1     98.33    KANGLE ; Cah-Oh-Cah
1736  1379  1786  1     98.04    KANGLE ; Cah-Oh-Cah
1741  1379  1786  1     98.02    KANGLE ; Cah-Oh-Cah
974   1381  1019  1     98.29    KANGLE ; Oh-Cah-Oh
974   1381  1024  1     98.32    KANGLE ; Oh-Cah-Oh
974   1381  1332  1     81.65    KANGLE ; Oh-Cah-Oh
974   1381  1337  1     81.62    KANGLE ; Oh-Cah-Oh
974   1381  1382  1     179.68   KANGLE ; Oh-Cah-Oh
1019  1381  1024  1     98.60    KANGLE ; Oh-Cah-Oh
1019  1381  1332  1     81.50    KANGLE ; Oh-Cah-Oh
1019  1381  1337  1     179.58   KANGLE ; Oh-Cah-Oh
1019  1381  1382  1     81.66    KANGLE ; Oh-Cah-Oh
1024  1381  1332  1     179.90   KANGLE ; Oh-Cah-Oh
1024  1381  1337  1     81.81    KANGLE ; Oh-Cah-Oh
1024  1381  1382  1     82.00    KANGLE ; Oh-Cah-Oh
1332  1381  1337  1     98.09    KANGLE ; Oh-Cah-Oh
1332  1381  1382  1     98.03    KANGLE ; Oh-Cah-Oh
1337  1381  1382  1     98.43    KANGLE ; Oh-Cah-Oh
1381  1382  1383  1     110.00   125.52   ; Cah-Oh-H
1381  1382  1426  1     98.23    KANGLE ; Cah-Oh-Cah
1381  1382  1431  1     97.83    KANGLE ; Cah-Oh-Cah
1383  1382  1426  1     110.00   125.52   ; H-Oh-Cah
1383  1382  1431  1     110.00   125.52   ; H-Oh-Cah
1426  1382  1431  1     98.33    KANGLE ; Cah-Oh-Cah
1385  1384  1741  1     110.00   125.52   ; H-Oh-Cah
1385  1384  1746  1     110.00   125.52   ; H-Oh-Cah
1385  1384  1791  1     110.00   125.52   ; H-Oh-Cah
1741  1384  1746  1     98.17    KANGLE ; Cah-Oh-Cah
1741  1384  1791  1     98.04    KANGLE ; Cah-Oh-Cah
1746  1384  1791  1     98.04    KANGLE ; Cah-Oh-Cah
979   1386  1024  1     98.32    KANGLE ; Oh-Cah-Oh
979   1386  1029  1     98.32    KANGLE ; Oh-Cah-Oh
979   1386  1337  1     81.62    KANGLE ; Oh-Cah-Oh
979   1386  1342  1     81.62    KANGLE ; Oh-Cah-Oh
979   1386  1387  1     179.79   KANGLE ; Oh-Cah-Oh
1024  1386  1029  1     98.45    KANGLE ; Oh-Cah-Oh
1024  1386  1337  1     81.81    KANGLE ; Oh-Cah-Oh
1024  1386  1342  1     179.74   KANGLE ; Oh-Cah-Oh
1024  1386  1387  1     81.82    KANGLE ; Oh-Cah-Oh
1029  1386  1337  1     179.74   KANGLE ; Oh-Cah-Oh
1029  1386  1342  1     81.81    KANGLE ; Oh-Cah-Oh
1029  1386  1387  1     81.82    KANGLE ; Oh-Cah-Oh
1337  1386  1342  1     97.93    KANGLE ; Oh-Cah-Oh
1337  1386  1387  1     98.24    KANGLE ; Oh-Cah-Oh
1342  1386  1387  1     98.24    KANGLE ; Oh-Cah-Oh
1386  1387  1388  1     110.00   125.52   ; Cah-Oh-H
1386  1387  1431  1     98.04    KANGLE ; Cah-Oh-Cah
1386  1387  1436  1     98.04    KANGLE ; Cah-Oh-Cah
1388  1387  1431  1     110.00   125.52   ; H-Oh-Cah
1388  1387  1436  1     110.00   125.52   ; H-Oh-Cah
1431  1387  1436  1     98.17    KANGLE ; Cah-Oh-Cah
1390  1389  1746  1     110.00   125.52   ; H-Oh-Cah
1390  1389  1751  1     110.00   125.52   ; H-Oh-Cah
1390  1389  1796  1     110.00   125.52   ; H-Oh-Cah
1746  1389  1751  1     98.33    KANGLE ; Cah-Oh-Cah
1746  1389  1796  1     98.04    KANGLE ; Cah-Oh-Cah
1751  1389  1796  1     98.02    KANGLE ; Cah-Oh-Cah
984   1391  1029  1     98.29    KANGLE ; Oh-Cah-Oh
984   1391  1034  1     98.32    KANGLE ; Oh-Cah-Oh
984   1391  1342  1     81.65    KANGLE ; Oh-Cah-Oh
984   1391  1347  1     81.62    KANGLE ; Oh-Cah-Oh
984   1391  1392  1     179.68   KANGLE ; Oh-Cah-Oh
1029  1391  1034  1     98.60    KANGLE ; Oh-Cah-Oh
1029  1391  1342  1     81.50    KANGLE ; Oh-Cah-Oh
1029  1391  1347  1     179.58   KANGLE ; Oh-Cah-Oh
1029  1391  1392  1     81.66    KANGLE ; Oh-Cah-Oh
1034  1391  1342  1     179.90   KANGLE ; Oh-Cah-Oh
1034  1391  1347  1     81.81    KANGLE ; Oh-Cah-Oh
1034  1391  1392  1     82.00    KANGLE ; Oh-Cah-Oh
1342  1391  1347  1     98.09    KANGLE ; Oh-Cah-Oh
1342  1391  1392  1     98.03    KANGLE ; Oh-Cah-Oh
1347  1391  1392  1     98.43    KANGLE ; Oh-Cah-Oh
1391  1392  1393  1     110.00   125.52   ; Cah-Oh-H
1391  1392  1396  1     97.85    KANGLE ; Cah-Oh-Cah
1391  1392  1436  1     98.23    KANGLE ; Cah-Oh-Cah
1393  1392  1396  1     110.00   125.52   ; H-Oh-Cah
1393  1392  1436  1     110.00   125.52   ; H-Oh-Cah
1396  1392  1436  1     98.25    KANGLE ; Cah-Oh-Cah
1395  1394  1711  1     110.00   125.52   ; H-Oh-Cah
1395  1394  1751  1     110.00   125.52   ; H-Oh-Cah
1395  1394  1756  1     110.00   125.52   ; H-Oh-Cah
1711  1394  1751  1     98.25    KANGLE ; Cah-Oh-Cah
1711  1394  1756  1     98.12    KANGLE ; Cah-Oh-Cah
1751  1394  1756  1     97.95    KANGLE ; Cah-Oh-Cah
1034  1396  1039  1     98.39    KANGLE ; Oh-Cah-Oh
1034  1396  1079  1     98.62    KANGLE ; Oh-Cah-Oh
1034  1396  1352  1     81.73    KANGLE ; Oh-Cah-Oh
1034  1396  1392  1     81.93    KANGLE ; Oh-Cah-Oh
1034  1396  1397  1     179.76   KANGLE ; Oh-Cah-Oh
1039  1396  1079  1     98.28    KANGLE ; Oh-Cah-Oh
1039  1396  1352  1     81.65    KANGLE ; Oh-Cah-Oh
1039  1396  1392  1     179.65   KANGLE ; Oh-Cah-Oh
1039  1396  1397  1     81.65    KANGLE ; Oh-Cah-Oh
1079  1396  1352  1     179.65   KANGLE ; Oh-Cah-Oh
1079  1396  1392  1     81.81    KANGLE ; Oh-Cah-Oh
1079  1396  1397  1     81.61    KANGLE ; Oh-Cah-Oh
1352  1396  1392  1     98.25    KANGLE ; Oh-Cah-Oh
1352  1396  1397  1     98.04    KANGLE ; Oh-Cah-Oh
1392  1396  1397  1     98.03    KANGLE ; Oh-Cah-Oh
1081  1397  1086  1     98.15    KANGLE ; Cah-Oh-Cah
1081  1397  1396  1     98.19    KANGLE ; Cah-Oh-Cah
1081  1397  1398  1     110.00   125.52   ; Cah-Oh-H
1086  1397  1396  1     98.17    KANGLE ; Cah-Oh-Cah
1086  1397  1398  1     110.00   125.52   ; Cah-Oh-H
1396  1397  1398  1     110.00   125.52   ; Cah-Oh-H
1400  1399  1446  1     110.00   125.52   ; H-Oh-Cah
1400  1399  1756  1     110.00   125.52   ; H-Oh-Cah
1400  1399  1761  1     110.00   125.52   ; H-Oh-Cah
1446  1399  1756  1     98.20    KANGLE ; Cah-Oh-Cah
1446  1399  1761  1     98.22    KANGLE ; Cah-Oh-Cah
1756  1399  1761  1     98.09    KANGLE ; Cah-Oh-Cah
994   1401  1039  1     98.51    KANGLE ; Oh-Cah-Oh
994   1401  1044  1     98.51    KANGLE ; Oh-Cah-Oh
994   1401  1352  1     81.85    KANGLE ; Oh-Cah-Oh
994   1401  1357  1     81.82    KANGLE ; Oh-Cah-Oh
994   1401  1402  1     179.79   KANGLE ; Oh-Cah-Oh
1039  1401  1044  1     98.20    KANGLE ; Oh-Cah-Oh
1039  1401  1352  1     81.65    KANGLE ; Oh-Cah-Oh
1039  1401  1357  1     179.66   KANGLE ; Oh-Cah-Oh
1039  1401  1402  1     81.62    KANGLE ; Oh-Cah-Oh
1044  1401  1352  1     179.63   KANGLE ; Oh-Cah-Oh
1044  1401  1357  1     81.81    KANGLE ; Oh-Cah-Oh
1044  1401  1402  1     81.62    KANGLE ; Oh-Cah-Oh
1352  1401  1357  1     98.33    KANGLE ; Oh-Cah-Oh
1352  1401  1402  1     98.02    KANGLE ; Oh-Cah-Oh
1357  1401  1402  1     98.04    KANGLE ; Oh-Cah-Oh
1086  1402  1091  1     97.99    KANGLE ; Cah-Oh-Cah
1086  1402  1401  1     98.19    KANGLE ; Cah-Oh-Cah
1086  1402  1403  1     110.00   125.52   ; Cah-Oh-H
1091  1402  1401  1     98.19    KANGLE ; Cah-Oh-Cah
1091  1402  1403  1     110.00   125.52   ; Cah-Oh-H
1401  1402  1403  1     110.00   125.52   ; Cah-Oh-H
1405  1404  1451  1     110.00   125.52   ; H-Oh-Cah
1405  1404  1761  1     110.00   125.52   ; H-Oh-Cah
1405  1404  1766  1     110.00   125.52   ; H-Oh-Cah
1451  1404  1761  1     98.22    KANGLE ; Cah-Oh-Cah
1451  1404  1766  1     98.22    KANGLE ; Cah-Oh-Cah
1761  1404  1766  1     97.93    KANGLE ; Cah-Oh-Cah
999   1406  1044  1     98.51    KANGLE ; Oh-Cah-Oh
999   1406  1049  1     98.49    KANGLE ; Oh-Cah-Oh
999   1406  1357  1     81.82    KANGLE ; Oh-Cah-Oh
999   1406  1362  1     81.82    KANGLE ; Oh-Cah-Oh
999   1406  1407  1     179.79   KANGLE ; Oh-Cah-Oh
1044  1406  1049  1     98.36    KANGLE ; Oh-Cah-Oh
1044  1406  1357  1     81.81    KANGLE ; Oh-Cah-Oh
1044  1406  1362  1     179.66   KANGLE ; Oh-Cah-Oh
1044  1406  1407  1     81.62    KANGLE ; Oh-Cah-Oh
1049  1406  1357  1     179.62   KANGLE ; Oh-Cah-Oh
1049  1406  1362  1     81.65    KANGLE ; Oh-Cah-Oh
1049  1406  1407  1     81.65    KANGLE ; Oh-Cah-Oh
1357  1406  1362  1     98.17    KANGLE ; Oh-Cah-Oh
1357  1406  1407  1     98.04    KANGLE ; Oh-Cah-Oh
1362  1406  1407  1     98.04    KANGLE ; Oh-Cah-Oh
1091  1407  1096  1     98.15    KANGLE ; Cah-Oh-Cah
1091  1407  1406  1     98.19    KANGLE ; Cah-Oh-Cah
1091  1407  1408  1     110.00   125.52   ; Cah-Oh-H
1096  1407  1406  1     98.17    KANGLE ; Cah-Oh-Cah
1096  1407  1408  1     110.00   125.52   ; Cah-Oh-H
1406  1407  1408  1     110.00   125.52   ; Cah-Oh-H
1410  1409  1456  1     110.00   125.52   ; H-Oh-Cah
1410  1409  1766  1     110.00   125.52   ; H-Oh-Cah
1410  1409  1771  1     110.00   125.52   ; H-Oh-Cah
1456  1409  1766  1     98.20    KANGLE ; Cah-Oh-Cah
1456  1409  1771  1     98.22    KANGLE ; Cah-Oh-Cah
1766  1409  1771  1     98.09    KANGLE ; Cah-Oh-Cah
1004  1411  1049  1     98.51    KANGLE ; Oh-Cah-Oh
1004  1411  1054  1     98.51    KANGLE ; Oh-Cah-Oh
1004  1411  1362  1     81.85    KANGLE ; Oh-Cah-Oh
1004  1411  1367  1     81.82    KANGLE ; Oh-Cah-Oh
1004  1411  1412  1     179.79   KANGLE ; Oh-Cah-Oh
1049  1411  1054  1     98.20    KANGLE ; Oh-Cah-Oh
1049  1411  1362  1     81.65    KANGLE ; Oh-Cah-Oh
1049  1411  1367  1     179.66   KANGLE ; Oh-Cah-Oh
1049  1411  1412  1     81.62    KANGLE ; Oh-Cah-Oh
1054  1411  1362  1     179.63   KANGLE ; Oh-Cah-Oh
1054  1411  1367  1     81.81    KANGLE ; Oh-Cah-Oh
1054  1411  1412  1     81.62    KANGLE ; Oh-Cah-Oh
1362  1411  1367  1     98.33    KANGLE ; Oh-Cah-Oh
1362  1411  1412  1     98.02    KANGLE ; Oh-Cah-Oh
1367  1411  1412  1     98.04    KANGLE ; Oh-Cah-Oh
1096  1412  1101  1     97.99    KANGLE ; Cah-Oh-Cah
1096  1412  1411  1     98.19    KANGLE ; Cah-Oh-Cah
1096  1412  1413  1     110.00   125.52   ; Cah-Oh-H
1101  1412  1411  1     98.19    KANGLE ; Cah-Oh-Cah
1101  1412  1413  1     110.00   125.52   ; Cah-Oh-H
1411  1412  1413  1     110.00   125.52   ; Cah-Oh-H
1415  1414  1461  1     110.00   125.52   ; H-Oh-Cah
1415  1414  1771  1     110.00   125.52   ; H-Oh-Cah
1415  1414  1776  1     110.00   125.52   ; H-Oh-Cah
1461  1414  1771  1     98.22    KANGLE ; Cah-Oh-Cah
1461  1414  1776  1     98.22    KANGLE ; Cah-Oh-Cah
1771  1414  1776  1     97.93    KANGLE ; Cah-Oh-Cah
1009  1416  1054  1     98.51    KANGLE ; Oh-Cah-Oh
1009  1416  1059  1     98.49    KANGLE ; Oh-Cah-Oh
1009  1416  1367  1     81.82    KANGLE ; Oh-Cah-Oh
1009  1416  1372  1     81.82    KANGLE ; Oh-Cah-Oh
1009  1416  1417  1     179.79   KANGLE ; Oh-Cah-Oh
1054  1416  1059  1     98.36    KANGLE ; Oh-Cah-Oh
1054  1416  1367  1     81.81    KANGLE ; Oh-Cah-Oh
1054  1416  1372  1     179.66   KANGLE ; Oh-Cah-Oh
1054  1416  1417  1     81.62    KANGLE ; Oh-Cah-Oh
1059  1416  1367  1     179.62   KANGLE ; Oh-Cah-Oh
1059  1416  1372  1     81.65    KANGLE ; Oh-Cah-Oh
1059  1416  1417  1     81.65    KANGLE ; Oh-Cah-Oh
1367  1416  1372  1     98.17    KANGLE ; Oh-Cah-Oh
1367  1416  1417  1     98.04    KANGLE ; Oh-Cah-Oh
1372  1416  1417  1     98.04    KANGLE ; Oh-Cah-Oh
1101  1417  1106  1     97.99    KANGLE ; Cah-Oh-Cah
1101  1417  1416  1     98.19    KANGLE ; Cah-Oh-Cah
1101  1417  1418  1     110.00   125.52   ; Cah-Oh-H
1106  1417  1416  1     98.19    KANGLE ; Cah-Oh-Cah
1106  1417  1418  1     110.00   125.52   ; Cah-Oh-H
1416  1417  1418  1     110.00   125.52   ; Cah-Oh-H
1420  1419  1466  1     110.00   125.52   ; H-Oh-Cah
1420  1419  1776  1     110.00   125.52   ; H-Oh-Cah
1420  1419  1781  1     110.00   125.52   ; H-Oh-Cah
1466  1419  1776  1     98.01    KANGLE ; Cah-Oh-Cah
1466  1419  1781  1     98.41    KANGLE ; Cah-Oh-Cah
1776  1419  1781  1     98.09    KANGLE ; Cah-Oh-Cah
1014  1421  1059  1     98.51    KANGLE ; Oh-Cah-Oh
1014  1421  1064  1     98.51    KANGLE ; Oh-Cah-Oh
1014  1421  1372  1     81.85    KANGLE ; Oh-Cah-Oh
1014  1421  1377  1     81.82    KANGLE ; Oh-Cah-Oh
1014  1421  1422  1     179.79   KANGLE ; Oh-Cah-Oh
1059  1421  1064  1     98.20    KANGLE ; Oh-Cah-Oh
1059  1421  1372  1     81.65    KANGLE ; Oh-Cah-Oh
1059  1421  1377  1     179.66   KANGLE ; Oh-Cah-Oh
1059  1421  1422  1     81.62    KANGLE ; Oh-Cah-Oh
1064  1421  1372  1     179.63   KANGLE ; Oh-Cah-Oh
1064  1421  1377  1     81.81    KANGLE ; Oh-Cah-Oh
1064  1421  1422  1     81.62    KANGLE ; Oh-Cah-Oh
1372  1421  1377  1     98.33    KANGLE ; Oh-Cah-Oh
1372  1421  1422  1     98.02    KANGLE ; Oh-Cah-Oh
1377  1421  1422  1     98.04    KANGLE ; Oh-Cah-Oh
1106  1422  1111  1     98.15    KANGLE ; Cah-Oh-Cah
1106  1422  1421  1     98.17    KANGLE ; Cah-Oh-Cah
1106  1422  1423  1     110.00   125.52   ; Cah-Oh-H
1111  1422  1421  1     98.19    KANGLE ; Cah-Oh-Cah
1111  1422  1423  1     110.00   125.52   ; Cah-Oh-H
1421  1422  1423  1     110.00   125.52   ; Cah-Oh-H
1425  1424  1471  1     110.00   125.52   ; H-Oh-Cah
1425  1424  1781  1     110.00   125.52   ; H-Oh-Cah
1425  1424  1786  1     110.00   125.52   ; H-Oh-Cah
1471  1424  1781  1     98.22    KANGLE ; Cah-Oh-Cah
1471  1424  1786  1     98.22    KANGLE ; Cah-Oh-Cah
1781  1424  1786  1     97.93    KANGLE ; Cah-Oh-Cah
1019  1426  1064  1     98.51    KANGLE ; Oh-Cah-Oh
1019  1426  1069  1     98.49    KANGLE ; Oh-Cah-Oh
1019  1426  1377  1     81.82    KANGLE ; Oh-Cah-Oh
1019  1426  1382  1     81.82    KANGLE ; Oh-Cah-Oh
1019  1426  1427  1     179.79   KANGLE ; Oh-Cah-Oh
1064  1426  1069  1     98.36    KANGLE ; Oh-Cah-Oh
1064  1426  1377  1     81.81    KANGLE ; Oh-Cah-Oh
1064  1426  1382  1     179.66   KANGLE ; Oh-Cah-Oh
1064  1426  1427  1     81.62    KANGLE ; Oh-Cah-Oh
1069  1426  1377  1     179.62   KANGLE ; Oh-Cah-Oh
1069  1426  1382  1     81.65    KANGLE ; Oh-Cah-Oh
1069  1426  1427  1     81.65    KANGLE ; Oh-Cah-Oh
1377  1426  1382  1     98.17    KANGLE ; Oh-Cah-Oh
1377  1426  1427  1     98.04    KANGLE ; Oh-Cah-Oh
1382  1426  1427  1     98.04    KANGLE ; Oh-Cah-Oh
1111  1427  1116  1     98.15    KANGLE ; Cah-Oh-Cah
1111  1427  1426  1     98.19    KANGLE ; Cah-Oh-Cah
1111  1427  1428  1     110.00   125.52   ; Cah-Oh-H
1116  1427  1426  1     98.17    KANGLE ; Cah-Oh-Cah
1116  1427  1428  1     110.00   125.52   ; Cah-Oh-H
1426  1427  1428  1     110.00   125.52   ; Cah-Oh-H
1430  1429  1476  1     110.00   125.52   ; H-Oh-Cah
1430  1429  1786  1     110.00   125.52   ; H-Oh-Cah
1430  1429  1791  1     110.00   125.52   ; H-Oh-Cah
1476  1429  1786  1     98.20    KANGLE ; Cah-Oh-Cah
1476  1429  1791  1     98.22    KANGLE ; Cah-Oh-Cah
1786  1429  1791  1     98.09    KANGLE ; Cah-Oh-Cah
1024  1431  1069  1     98.51    KANGLE ; Oh-Cah-Oh
1024  1431  1074  1     98.51    KANGLE ; Oh-Cah-Oh
1024  1431  1382  1     81.85    KANGLE ; Oh-Cah-Oh
1024  1431  1387  1     81.82    KANGLE ; Oh-Cah-Oh
1024  1431  1432  1     179.79   KANGLE ; Oh-Cah-Oh
1069  1431  1074  1     98.20    KANGLE ; Oh-Cah-Oh
1069  1431  1382  1     81.65    KANGLE ; Oh-Cah-Oh
1069  1431  1387  1     179.66   KANGLE ; Oh-Cah-Oh
1069  1431  1432  1     81.62    KANGLE ; Oh-Cah-Oh
1074  1431  1382  1     179.63   KANGLE ; Oh-Cah-Oh
1074  1431  1387  1     81.81    KANGLE ; Oh-Cah-Oh
1074  1431  1432  1     81.62    KANGLE ; Oh-Cah-Oh
1382  1431  1387  1     98.33    KANGLE ; Oh-Cah-Oh
1382  1431  1432  1     98.02    KANGLE ; Oh-Cah-Oh
1387  1431  1432  1     98.04    KANGLE ; Oh-Cah-Oh
1116  1432  1121  1     97.99    KANGLE ; Cah-Oh-Cah
1116  1432  1431  1     98.19    KANGLE ; Cah-Oh-Cah
1116  1432  1433  1     110.00   125.52   ; Cah-Oh-H
1121  1432  1431  1     98.19    KANGLE ; Cah-Oh-Cah
1121  1432  1433  1     110.00   125.52   ; Cah-Oh-H
1431  1432  1433  1     110.00   125.52   ; Cah-Oh-H
1435  1434  1481  1     110.00   125.52   ; H-Oh-Cah
1435  1434  1791  1     110.00   125.52   ; H-Oh-Cah
1435  1434  1796  1     110.00   125.52   ; H-Oh-Cah
1481  1434  1791  1     98.22    KANGLE ; Cah-Oh-Cah
1481  1434  1796  1     98.22    KANGLE ; Cah-Oh-Cah
1791  1434  1796  1     97.93    KANGLE ; Cah-Oh-Cah
1029  1436  1074  1     98.51    KANGLE ; Oh-Cah-Oh
1029  1436  1079  1     98.49    KANGLE ; Oh-Cah-Oh
1029  1436  1387  1     81.82    KANGLE ; Oh-Cah-Oh
1029  1436  1392  1     81.82    KANGLE ; Oh-Cah-Oh
1029  1436  1437  1     179.79   KANGLE ; Oh-Cah-Oh
1074  1436  1079  1     98.36    KANGLE ; Oh-Cah-Oh
1074  1436  1387  1     81.81    KANGLE ; Oh-Cah-Oh
1074  1436  1392  1     179.66   KANGLE ; Oh-Cah-Oh
1074  1436  1437  1     81.62    KANGLE ; Oh-Cah-Oh
1079  1436  1387  1     179.62   KANGLE ; Oh-Cah-Oh
1079  1436  1392  1     81.65    KANGLE ; Oh-Cah-Oh
1079  1436  1437  1     81.65    KANGLE ; Oh-Cah-Oh
1387  1436  1392  1     98.17    KANGLE ; Oh-Cah-Oh
1387  1436  1437  1     98.04    KANGLE ; Oh-Cah-Oh
1392  1436  1437  1     98.04    KANGLE ; Oh-Cah-Oh
1081  1437  1121  1     98.07    KANGLE ; Cah-Oh-Cah
1081  1437  1436  1     98.18    KANGLE ; Cah-Oh-Cah
1081  1437  1438  1     110.00   125.52   ; Cah-Oh-H
1121  1437  1436  1     98.19    KANGLE ; Cah-Oh-Cah
1121  1437  1438  1     110.00   125.52   ; Cah-Oh-H
1436  1437  1438  1     110.00   125.52   ; Cah-Oh-H
1440  1439  1441  1     110.00   125.52   ; H-Oh-Cah
1440  1439  1756  1     110.00   125.52   ; H-Oh-Cah
1440  1439  1796  1     110.00   125.52   ; H-Oh-Cah
1441  1439  1756  1     98.33    KANGLE ; Cah-Oh-Cah
1441  1439  1796  1     98.10    KANGLE ; Cah-Oh-Cah
1756  1439  1796  1     98.01    KANGLE ; Cah-Oh-Cah
1084  1441  1124  1     98.01    KANGLE ; Oh-Cah-Oh
1084  1441  1439  1     98.13    KANGLE ; Oh-Cah-Oh
1084  1441  1442  1     81.62    KANGLE ; Oh-Cah-Oh
1084  1441  1757  1     81.90    KANGLE ; Oh-Cah-Oh
1084  1441  1797  1     179.73   KANGLE ; Oh-Cah-Oh
1124  1441  1439  1     98.30    KANGLE ; Oh-Cah-Oh
1124  1441  1442  1     81.63    KANGLE ; Oh-Cah-Oh
1124  1441  1757  1     179.85   KANGLE ; Oh-Cah-Oh
1124  1441  1797  1     81.75    KANGLE ; Oh-Cah-Oh
1439  1441  1442  1     179.73   KANGLE ; Oh-Cah-Oh
1439  1441  1757  1     81.59    KANGLE ; Oh-Cah-Oh
1439  1441  1797  1     81.79    KANGLE ; Oh-Cah-Oh
1442  1441  1757  1     98.47    KANGLE ; Oh-Cah-Oh
1442  1441  1797  1     98.45    KANGLE ; Oh-Cah-Oh
1757  1441  1797  1     98.34    KANGLE ; Oh-Cah-Oh
1441  1442  1443  1     110.00   125.52   ; Cah-Oh-H
1441  1442  1486  1     98.32    KANGLE ; Cah-Oh-Cah
1441  1442  1491  1     98.32    KANGLE ; Cah-Oh-Cah
1443  1442  1486  1     110.00   125.52   ; H-Oh-Cah
1443  1442  1491  1     110.00   125.52   ; H-Oh-Cah
1486  1442  1491  1     98.45    KANGLE ; Cah-Oh-Cah
1     1444  6     1     98.20    KANGLE ; Cah-Oh-Cah
1     1444  51    1     98.44    KANGLE ; Cah-Oh-Cah
1     1444  1445  1     110.00   125.52   ; Cah-Oh-H
6     1444  51    1     98.44    KANGLE ; Cah-Oh-Cah
6     1444  1445  1     110.00   125.52   ; Cah-Oh-H
51    1444  1445  1     110.00   125.52   ; Cah-Oh-H
1084  1446  1089  1     98.09    KANGLE ; Oh-Cah-Oh
1084  1446  1399  1     98.20    KANGLE ; Oh-Cah-Oh
1084  1446  1447  1     81.46    KANGLE ; Oh-Cah-Oh
1084  1446  1757  1     81.59    KANGLE ; Oh-Cah-Oh
1084  1446  1762  1     179.88   KANGLE ; Oh-Cah-Oh
1089  1446  1399  1     98.22    KANGLE ; Oh-Cah-Oh
1089  1446  1447  1     81.81    KANGLE ; Oh-Cah-Oh
1089  1446  1757  1     179.66   KANGLE ; Oh-Cah-Oh
1089  1446  1762  1     81.90    KANGLE ; Oh-Cah-Oh
1399  1446  1447  1     179.66   KANGLE ; Oh-Cah-Oh
1399  1446  1757  1     81.71    KANGLE ; Oh-Cah-Oh
1399  1446  1762  1     81.69    KANGLE ; Oh-Cah-Oh
1447  1446  1757  1     98.25    KANGLE ; Oh-Cah-Oh
1447  1446  1762  1     98.65    KANGLE ; Oh-Cah-Oh
1757  1446  1762  1     98.42    KANGLE ; Oh-Cah-Oh
1446  1447  1448  1     110.00   125.52   ; Cah-Oh-H
1446  1447  1491  1     98.50    KANGLE ; Cah-Oh-Cah
1446  1447  1496  1     98.10    KANGLE ; Cah-Oh-Cah
1448  1447  1491  1     110.00   125.52   ; H-Oh-Cah
1448  1447  1496  1     110.00   125.52   ; H-Oh-Cah
1491  1447  1496  1     98.60    KANGLE ; Cah-Oh-Cah
6     1449  11    1     98.36    KANGLE ; Cah-Oh-Cah
6     1449  56    1     98.41    KANGLE ; Cah-Oh-Cah
6     1449  1450  1     110.00   125.52   ; Cah-Oh-H
11    1449  56    1     98.44    KANGLE ; Cah-Oh-Cah
11    1449  1450  1     110.00   125.52   ; Cah-Oh-H
56    1449  1450  1     110.00   125.52   ; Cah-Oh-H
1089  1451  1094  1     97.93    KANGLE ; Oh-Cah-Oh
1089  1451  1404  1     98.22    KANGLE ; Oh-Cah-Oh
1089  1451  1452  1     81.62    KANGLE ; Oh-Cah-Oh
1089  1451  1762  1     81.90    KANGLE ; Oh-Cah-Oh
1089  1451  1767  1     179.80   KANGLE ; Oh-Cah-Oh
1094  1451  1404  1     98.22    KANGLE ; Oh-Cah-Oh
1094  1451  1452  1     81.62    KANGLE ; Oh-Cah-Oh
1094  1451  1762  1     179.80   KANGLE ; Oh-Cah-Oh
1094  1451  1767  1     81.90    KANGLE ; Oh-Cah-Oh
1404  1451  1452  1     179.76   KANGLE ; Oh-Cah-Oh
1404  1451  1762  1     81.69    KANGLE ; Oh-Cah-Oh
1404  1451  1767  1     81.69    KANGLE ; Oh-Cah-Oh
1452  1451  1762  1     98.47    KANGLE ; Oh-Cah-Oh
1452  1451  1767  1     98.47    KANGLE ; Oh-Cah-Oh
1762  1451  1767  1     98.26    KANGLE ; Oh-Cah-Oh
1451  1452  1453  1     110.00   125.52   ; Cah-Oh-H
1451  1452  1496  1     98.32    KANGLE ; Cah-Oh-Cah
1451  1452  1501  1     98.32    KANGLE ; Cah-Oh-Cah
1453  1452  1496  1     110.00   125.52   ; H-Oh-Cah
1453  1452  1501  1     110.00   125.52   ; H-Oh-Cah
1496  1452  1501  1     98.45    KANGLE ; Cah-Oh-Cah
11    1454  16    1     98.20    KANGLE ; Cah-Oh-Cah
11    1454  61    1     98.44    KANGLE ; Cah-Oh-Cah
11    1454  1455  1     110.00   125.52   ; Cah-Oh-H
16    1454  61    1     98.44    KANGLE ; Cah-Oh-Cah
16    1454  1455  1     110.00   125.52   ; Cah-Oh-H
61    1454  1455  1     110.00   125.52   ; Cah-Oh-H
1094  1456  1099  1     98.09    KANGLE ; Oh-Cah-Oh
1094  1456  1409  1     98.20    KANGLE ; Oh-Cah-Oh
1094  1456  1457  1     81.46    KANGLE ; Oh-Cah-Oh
1094  1456  1767  1     81.59    KANGLE ; Oh-Cah-Oh
1094  1456  1772  1     179.88   KANGLE ; Oh-Cah-Oh
1099  1456  1409  1     98.22    KANGLE ; Oh-Cah-Oh
1099  1456  1457  1     81.81    KANGLE ; Oh-Cah-Oh
1099  1456  1767  1     179.66   KANGLE ; Oh-Cah-Oh
1099  1456  1772  1     81.90    KANGLE ; Oh-Cah-Oh
1409  1456  1457  1     179.66   KANGLE ; Oh-Cah-Oh
1409  1456  1767  1     81.71    KANGLE ; Oh-Cah-Oh
1409  1456  1772  1     81.69    KANGLE ; Oh-Cah-Oh
1457  1456  1767  1     98.25    KANGLE ; Oh-Cah-Oh
1457  1456  1772  1     98.65    KANGLE ; Oh-Cah-Oh
1767  1456  1772  1     98.42    KANGLE ; Oh-Cah-Oh
1456  1457  1458  1     110.00   125.52   ; Cah-Oh-H
1456  1457  1501  1     98.50    KANGLE ; Cah-Oh-Cah
1456  1457  1506  1     98.10    KANGLE ; Cah-Oh-Cah
1458  1457  1501  1     110.00   125.52   ; H-Oh-Cah
1458  1457  1506  1     110.00   125.52   ; H-Oh-Cah
1501  1457  1506  1     98.60    KANGLE ; Cah-Oh-Cah
16    1459  21    1     98.36    KANGLE ; Cah-Oh-Cah
16    1459  66    1     98.41    KANGLE ; Cah-Oh-Cah
16    1459  1460  1     110.00   125.52   ; Cah-Oh-H
21    1459  66    1     98.44    KANGLE ; Cah-Oh-Cah
21    1459  1460  1     110.00   125.52   ; Cah-Oh-H
66    1459  1460  1     110.00   125.52   ; Cah-Oh-H
1099  1461  1104  1     97.93    KANGLE ; Oh-Cah-Oh
1099  1461  1414  1     98.22    KANGLE ; Oh-Cah-Oh
1099  1461  1462  1     81.62    KANGLE ; Oh-Cah-Oh
1099  1461  1772  1     81.90    KANGLE ; Oh-Cah-Oh
1099  1461  1777  1     179.80   KANGLE ; Oh-Cah-Oh
1104  1461  1414  1     98.22    KANGLE ; Oh-Cah-Oh
1104  1461  1462  1     81.62    KANGLE ; Oh-Cah-Oh
1104  1461  1772  1     179.80   KANGLE ; Oh-Cah-Oh
1104  1461  1777  1     81.90    KANGLE ; Oh-Cah-Oh
1414  1461  1462  1     179.76   KANGLE ; Oh-Cah-Oh
1414  1461  1772  1     81.69    KANGLE ; Oh-Cah-Oh
1414  1461  1777  1     81.69    KANGLE ; Oh-Cah-Oh
1462  1461  1772  1     98.47    KANGLE ; Oh-Cah-Oh
1462  1461  1777  1     98.47    KANGLE ; Oh-Cah-Oh
1772  1461  1777  1     98.26    KANGLE ; Oh-Cah-Oh
1461  1462  1463  1     110.00   125.52   ; Cah-Oh-H
1461  1462  1506  1     98.32    KANGLE ; Cah-Oh-Cah
1461  1462  1511  1     98.32    KANGLE ; Cah-Oh-Cah
1463  1462  1506  1     110.00   125.52   ; H-Oh-Cah
1463  1462  1511  1     110.00   125.52   ; H-Oh-Cah
1506  1462  1511  1     98.45    KANGLE ; Cah-Oh-Cah
21    1464  26    1     98.20    KANGLE ; Cah-Oh-Cah
21    1464  71    1     98.44    KANGLE ; Cah-Oh-Cah
21    1464  1465  1     110.00   125.52   ; Cah-Oh-H
26    1464  71    1     98.44    KANGLE ; Cah-Oh-Cah
26    1464  1465  1     110.00   125.52   ; Cah-Oh-H
71    1464  1465  1     110.00   125.52   ; Cah-Oh-H
1104  1466  1109  1     98.09    KANGLE ; Oh-Cah-Oh
1104  1466  1419  1     98.41    KANGLE ; Oh-Cah-Oh
1104  1466  1467  1     81.62    KANGLE ; Oh-Cah-Oh
1104  1466  1777  1     81.90    KANGLE ; Oh-Cah-Oh
1104  1466  1782  1     179.66   KANGLE ; Oh-Cah-Oh
1109  1466  1419  1     98.01    KANGLE ; Oh-Cah-Oh
1109  1466  1467  1     81.65    KANGLE ; Oh-Cah-Oh
1109  1466  1777  1     179.88   KANGLE ; Oh-Cah-Oh
1109  1466  1782  1     81.59    KANGLE ; Oh-Cah-Oh
1419  1466  1467  1     179.66   KANGLE ; Oh-Cah-Oh
1419  1466  1777  1     81.87    KANGLE ; Oh-Cah-Oh
1419  1466  1782  1     81.53    KANGLE ; Oh-Cah-Oh
1467  1466  1777  1     98.47    KANGLE ; Oh-Cah-Oh
1467  1466  1782  1     98.44    KANGLE ; Oh-Cah-Oh
1777  1466  1782  1     98.42    KANGLE ; Oh-Cah-Oh
1466  1467  1468  1     110.00   125.52   ; Cah-Oh-H
1466  1467  1511  1     98.32    KANGLE ; Cah-Oh-Cah
1466  1467  1516  1     98.29    KANGLE ; Cah-Oh-Cah
1468  1467  1511  1     110.00   125.52   ; H-Oh-Cah
1468  1467  1516  1     110.00   125.52   ; H-Oh-Cah
1511  1467  1516  1     98.60    KANGLE ; Cah-Oh-Cah
26    1469  31    1     98.36    KANGLE ; Cah-Oh-Cah
26    1469  76    1     98.41    KANGLE ; Cah-Oh-Cah
26    1469  1470  1     110.00   125.52   ; Cah-Oh-H
31    1469  76    1     98.44    KANGLE ; Cah-Oh-Cah
31    1469  1470  1     110.00   125.52   ; Cah-Oh-H
76    1469  1470  1     110.00   125.52   ; Cah-Oh-H
1109  1471  1114  1     97.93    KANGLE ; Oh-Cah-Oh
1109  1471  1424  1     98.22    KANGLE ; Oh-Cah-Oh
1109  1471  1472  1     81.62    KANGLE ; Oh-Cah-Oh
1109  1471  1782  1     81.90    KANGLE ; Oh-Cah-Oh
1109  1471  1787  1     179.80   KANGLE ; Oh-Cah-Oh
1114  1471  1424  1     98.22    KANGLE ; Oh-Cah-Oh
1114  1471  1472  1     81.62    KANGLE ; Oh-Cah-Oh
1114  1471  1782  1     179.80   KANGLE ; Oh-Cah-Oh
1114  1471  1787  1     81.90    KANGLE ; Oh-Cah-Oh
1424  1471  1472  1     179.76   KANGLE ; Oh-Cah-Oh
1424  1471  1782  1     81.69    KANGLE ; Oh-Cah-Oh
1424  1471  1787  1     81.69    KANGLE ; Oh-Cah-Oh
1472  1471  1782  1     98.47    KANGLE ; Oh-Cah-Oh
1472  1471  1787  1     98.47    KANGLE ; Oh-Cah-Oh
1782  1471  1787  1     98.26    KANGLE ; Oh-Cah-Oh
1471  1472  1473  1     110.00   125.52   ; Cah-Oh-H
1471  1472  1516  1     98.32    KANGLE ; Cah-Oh-Cah
1471  1472  1521  1     98.32    KANGLE ; Cah-Oh-Cah
1473  1472  1516  1     110.00   125.52   ; H-Oh-Cah
1473  1472  1521  1     110.00   125.52   ; H-Oh-Cah
1516  1472  1521  1     98.45    KANGLE ; Cah-Oh-Cah
31    1474  36    1     98.36    KANGLE ; Cah-Oh-Cah
31    1474  81    1     98.44    KANGLE ; Cah-Oh-Cah
31    1474  1475  1     110.00   125.52   ; Cah-Oh-H
36    1474  81    1     98.41    KANGLE ; Cah-Oh-Cah
36    1474  1475  1     110.00   125.52   ; Cah-Oh-H
81    1474  1475  1     110.00   125.52   ; Cah-Oh-H
1114  1476  1119  1     98.09    KANGLE ; Oh-Cah-Oh
1114  1476  1429  1     98.20    KANGLE ; Oh-Cah-Oh
1114  1476  1477  1     81.46    KANGLE ; Oh-Cah-Oh
1114  1476  1787  1     81.59    KANGLE ; Oh-Cah-Oh
1114  1476  1792  1     179.88   KANGLE ; Oh-Cah-Oh
1119  1476  1429  1     98.22    KANGLE ; Oh-Cah-Oh
1119  1476  1477  1     81.81    KANGLE ; Oh-Cah-Oh
1119  1476  1787  1     179.66   KANGLE ; Oh-Cah-Oh
1119  1476  1792  1     81.90    KANGLE ; Oh-Cah-Oh
1429  1476  1477  1     179.66   KANGLE ; Oh-Cah-Oh
1429  1476  1787  1     81.71    KANGLE ; Oh-Cah-Oh
1429  1476  1792  1     81.69    KANGLE ; Oh-Cah-Oh
1477  1476  1787  1     98.25    KANGLE ; Oh-Cah-Oh
1477  1476  1792  1     98.65    KANGLE ; Oh-Cah-Oh
1787  1476  1792  1     98.42    KANGLE ; Oh-Cah-Oh
1476  1477  1478  1     110.00   125.52   ; Cah-Oh-H
1476  1477  1521  1     98.50    KANGLE ; Cah-Oh-Cah
1476  1477  1526  1     98.10    KANGLE ; Cah-Oh-Cah
1478  1477  1521  1     110.00   125.52   ; H-Oh-Cah
1478  1477  1526  1     110.00   125.52   ; H-Oh-Cah
1521  1477  1526  1     98.60    KANGLE ; Cah-Oh-Cah
36    1479  41    1     98.20    KANGLE ; Cah-Oh-Cah
36    1479  86    1     98.44    KANGLE ; Cah-Oh-Cah
36    1479  1480  1     110.00   125.52   ; Cah-Oh-H
41    1479  86    1     98.44    KANGLE ; Cah-Oh-Cah
41    1479  1480  1     110.00   125.52   ; Cah-Oh-H
86    1479  1480  1     110.00   125.52   ; Cah-Oh-H
1119  1481  1124  1     97.93    KANGLE ; Oh-Cah-Oh
1119  1481  1434  1     98.22    KANGLE ; Oh-Cah-Oh
1119  1481  1482  1     81.62    KANGLE ; Oh-Cah-Oh
1119  1481  1792  1     81.90    KANGLE ; Oh-Cah-Oh
1119  1481  1797  1     179.80   KANGLE ; Oh-Cah-Oh
1124  1481  1434  1     98.22    KANGLE ; Oh-Cah-Oh
1124  1481  1482  1     81.62    KANGLE ; Oh-Cah-Oh
1124  1481  1792  1     179.80   KANGLE ; Oh-Cah-Oh
1124  1481  1797  1     81.91    KANGLE ; Oh-Cah-Oh
1434  1481  1482  1     179.76   KANGLE ; Oh-Cah-Oh
1434  1481  1792  1     81.69    KANGLE ; Oh-Cah-Oh
1434  1481  1797  1     81.69    KANGLE ; Oh-Cah-Oh
1482  1481  1792  1     98.47    KANGLE ; Oh-Cah-Oh
1482  1481  1797  1     98.47    KANGLE ; Oh-Cah-Oh
1792  1481  1797  1     98.26    KANGLE ; Oh-Cah-Oh
1481  1482  1483  1     110.00   125.52   ; Cah-Oh-H
1481  1482  1486  1     98.30    KANGLE ; Cah-Oh-Cah
1481  1482  1526  1     98.32    KANGLE ; Cah-Oh-Cah
1483  1482  1486  1     110.00   125.52   ; H-Oh-Cah
1483  1482  1526  1     110.00   125.52   ; H-Oh-Cah
1486  1482  1526  1     98.53    KANGLE ; Cah-Oh-Cah
1     1484  41    1     98.28    KANGLE ; Cah-Oh-Cah
1     1484  46    1     98.33    KANGLE ; Cah-Oh-Cah
1     1484  1485  1     110.00   125.52   ; Cah-Oh-H
41    1484  46    1     98.53    KANGLE ; Cah-Oh-Cah
41    1484  1485  1     110.00   125.52   ; Cah-Oh-H
46    1484  1485  1     110.00   125.52   ; Cah-Oh-H
1124  1486  1129  1     98.26    KANGLE ; Oh-Cah-Oh
1124  1486  1169  1     98.06    KANGLE ; Oh-Cah-Oh
1124  1486  1442  1     81.99    KANGLE ; Oh-Cah-Oh
1124  1486  1482  1     81.82    KANGLE ; Oh-Cah-Oh
1124  1486  1487  1     179.65   KANGLE ; Oh-Cah-Oh
1129  1486  1169  1     98.01    KANGLE ; Oh-Cah-Oh
1129  1486  1442  1     81.81    KANGLE ; Oh-Cah-Oh
1129  1486  1482  1     179.66   KANGLE ; Oh-Cah-Oh
1129  1486  1487  1     81.62    KANGLE ; Oh-Cah-Oh
1169  1486  1442  1     179.82   KANGLE ; Oh-Cah-Oh
1169  1486  1482  1     81.65    KANGLE ; Oh-Cah-Oh
1169  1486  1487  1     81.63    KANGLE ; Oh-Cah-Oh
1442  1486  1482  1     98.53    KANGLE ; Oh-Cah-Oh
1442  1486  1487  1     98.32    KANGLE ; Oh-Cah-Oh
1482  1486  1487  1     98.30    KANGLE ; Oh-Cah-Oh
1486  1487  1488  1     110.00   125.52   ; Cah-Oh-H
1486  1487  1531  1     98.51    KANGLE ; Cah-Oh-Cah
1486  1487  1536  1     98.51    KANGLE ; Cah-Oh-Cah
1488  1487  1531  1     110.00   125.52   ; H-Oh-Cah
1488  1487  1536  1     110.00   125.52   ; H-Oh-Cah
1531  1487  1536  1     98.20    KANGLE ; Cah-Oh-Cah
46    1489  51    1     98.20    KANGLE ; Cah-Oh-Cah
46    1489  96    1     98.51    KANGLE ; Cah-Oh-Cah
46    1489  1490  1     110.00   125.52   ; Cah-Oh-H
51    1489  96    1     98.51    KANGLE ; Cah-Oh-Cah
51    1489  1490  1     110.00   125.52   ; Cah-Oh-H
96    1489  1490  1     110.00   125.52   ; Cah-Oh-H
1084  1491  1129  1     98.17    KANGLE ; Oh-Cah-Oh
1084  1491  1134  1     98.14    KANGLE ; Oh-Cah-Oh
1084  1491  1442  1     81.90    KANGLE ; Oh-Cah-Oh
1084  1491  1447  1     81.90    KANGLE ; Oh-Cah-Oh
1084  1491  1492  1     179.67   KANGLE ; Oh-Cah-Oh
1129  1491  1134  1     98.09    KANGLE ; Oh-Cah-Oh
1129  1491  1442  1     81.81    KANGLE ; Oh-Cah-Oh
1129  1491  1447  1     179.74   KANGLE ; Oh-Cah-Oh
1129  1491  1492  1     81.62    KANGLE ; Oh-Cah-Oh
1134  1491  1442  1     179.90   KANGLE ; Oh-Cah-Oh
1134  1491  1447  1     81.65    KANGLE ; Oh-Cah-Oh
1134  1491  1492  1     81.65    KANGLE ; Oh-Cah-Oh
1442  1491  1447  1     98.45    KANGLE ; Oh-Cah-Oh
1442  1491  1492  1     98.32    KANGLE ; Oh-Cah-Oh
1447  1491  1492  1     98.32    KANGLE ; Oh-Cah-Oh
1491  1492  1493  1     110.00   125.52   ; Cah-Oh-H
1491  1492  1536  1     98.51    KANGLE ; Cah-Oh-Cah
1491  1492  1541  1     98.49    KANGLE ; Cah-Oh-Cah
1493  1492  1536  1     110.00   125.52   ; H-Oh-Cah
1493  1492  1541  1     110.00   125.52   ; H-Oh-Cah
1536  1492  1541  1     98.36    KANGLE ; Cah-Oh-Cah
51    1494  56    1     98.36    KANGLE ; Cah-Oh-Cah
51    1494  101   1     98.49    KANGLE ; Cah-Oh-Cah
51    1494  1495  1     110.00   125.52   ; Cah-Oh-H
56    1494  101   1     98.51    KANGLE ; Cah-Oh-Cah
56    1494  1495  1     110.00   125.52   ; Cah-Oh-H
101   1494  1495  1     110.00   125.52   ; Cah-Oh-H
1089  1496  1134  1     98.17    KANGLE ; Oh-Cah-Oh
1089  1496  1139  1     98.17    KANGLE ; Oh-Cah-Oh
1089  1496  1447  1     81.92    KANGLE ; Oh-Cah-Oh
1089  1496  1452  1     81.90    KANGLE ; Oh-Cah-Oh
1089  1496  1497  1     179.67   KANGLE ; Oh-Cah-Oh
1134  1496  1139  1     97.93    KANGLE ; Oh-Cah-Oh
1134  1496  1447  1     81.65    KANGLE ; Oh-Cah-Oh
1134  1496  1452  1     179.74   KANGLE ; Oh-Cah-Oh
1134  1496  1497  1     81.62    KANGLE ; Oh-Cah-Oh
1139  1496  1447  1     179.58   KANGLE ; Oh-Cah-Oh
1139  1496  1452  1     81.81    KANGLE ; Oh-Cah-Oh
1139  1496  1497  1     81.62    KANGLE ; Oh-Cah-Oh
1447  1496  1452  1     98.60    KANGLE ; Oh-Cah-Oh
1447  1496  1497  1     98.29    KANGLE ; Oh-Cah-Oh
1452  1496  1497  1     98.32    KANGLE ; Oh-Cah-Oh
1496  1497  1498  1     110.00   125.52   ; Cah-Oh-H
1496  1497  1541  1     98.51    KANGLE ; Cah-Oh-Cah
1496  1497  1546  1     98.51    KANGLE ; Cah-Oh-Cah
1498  1497  1541  1     110.00   125.52   ; H-Oh-Cah
1498  1497  1546  1     110.00   125.52   ; H-Oh-Cah
1541  1497  1546  1     98.20    KANGLE ; Cah-Oh-Cah
56    1499  61    1     98.20    KANGLE ; Cah-Oh-Cah
56    1499  106   1     98.51    KANGLE ; Cah-Oh-Cah
56    1499  1500  1     110.00   125.52   ; Cah-Oh-H
61    1499  106   1     98.51    KANGLE ; Cah-Oh-Cah
61    1499  1500  1     110.00   125.52   ; Cah-Oh-H
106   1499  1500  1     110.00   125.52   ; Cah-Oh-H
1094  1501  1139  1     98.17    KANGLE ; Oh-Cah-Oh
1094  1501  1144  1     98.14    KANGLE ; Oh-Cah-Oh
1094  1501  1452  1     81.90    KANGLE ; Oh-Cah-Oh
1094  1501  1457  1     81.90    KANGLE ; Oh-Cah-Oh
1094  1501  1502  1     179.67   KANGLE ; Oh-Cah-Oh
1139  1501  1144  1     98.09    KANGLE ; Oh-Cah-Oh
1139  1501  1452  1     81.81    KANGLE ; Oh-Cah-Oh
1139  1501  1457  1     179.74   KANGLE ; Oh-Cah-Oh
1139  1501  1502  1     81.62    KANGLE ; Oh-Cah-Oh
1144  1501  1452  1     179.90   KANGLE ; Oh-Cah-Oh
1144  1501  1457  1     81.65    KANGLE ; Oh-Cah-Oh
1144  1501  1502  1     81.65    KANGLE ; Oh-Cah-Oh
1452  1501  1457  1     98.45    KANGLE ; Oh-Cah-Oh
1452  1501  1502  1     98.32    KANGLE ; Oh-Cah-Oh
1457  1501  1502  1     98.32    KANGLE ; Oh-Cah-Oh
1501  1502  1503  1     110.00   125.52   ; Cah-Oh-H
1501  1502  1546  1     98.51    KANGLE ; Cah-Oh-Cah
1501  1502  1551  1     98.49    KANGLE ; Cah-Oh-Cah
1503  1502  1546  1     110.00   125.52   ; H-Oh-Cah
1503  1502  1551  1     110.00   125.52   ; H-Oh-Cah
1546  1502  1551  1     98.36    KANGLE ; Cah-Oh-Cah
61    1504  66    1     98.36    KANGLE ; Cah-Oh-Cah
61    1504  111   1     98.49    KANGLE ; Cah-Oh-Cah
61    1504  1505  1     110.00   125.52   ; Cah-Oh-H
66    1504  111   1     98.51    KANGLE ; Cah-Oh-Cah
66    1504  1505  1     110.00   125.52   ; Cah-Oh-H
111   1504  1505  1     110.00   125.52   ; Cah-Oh-H
1099  1506  1144  1     98.17    KANGLE ; Oh-Cah-Oh
1099  1506  1149  1     98.17    KANGLE ; Oh-Cah-Oh
1099  1506  1457  1     81.92    KANGLE ; Oh-Cah-Oh
1099  1506  1462  1     81.90    KANGLE ; Oh-Cah-Oh
1099  1506  1507  1     179.67   KANGLE ; Oh-Cah-Oh
1144  1506  1149  1     97.93    KANGLE ; Oh-Cah-Oh
1144  1506  1457  1     81.65    KANGLE ; Oh-Cah-Oh
1144  1506  1462  1     179.74   KANGLE ; Oh-Cah-Oh
1144  1506  1507  1     81.62    KANGLE ; Oh-Cah-Oh
1149  1506  1457  1     179.58   KANGLE ; Oh-Cah-Oh
1149  1506  1462  1     81.81    KANGLE ; Oh-Cah-Oh
1149  1506  1507  1     81.62    KANGLE ; Oh-Cah-Oh
1457  1506  1462  1     98.60    KANGLE ; Oh-Cah-Oh
1457  1506  1507  1     98.29    KANGLE ; Oh-Cah-Oh
1462  1506  1507  1     98.32    KANGLE ; Oh-Cah-Oh
1506  1507  1508  1     110.00   125.52   ; Cah-Oh-H
1506  1507  1551  1     98.51    KANGLE ; Cah-Oh-Cah
1506  1507  1556  1     98.51    KANGLE ; Cah-Oh-Cah
1508  1507  1551  1     110.00   125.52   ; H-Oh-Cah
1508  1507  1556  1     110.00   125.52   ; H-Oh-Cah
1551  1507  1556  1     98.20    KANGLE ; Cah-Oh-Cah
66    1509  71    1     98.20    KANGLE ; Cah-Oh-Cah
66    1509  116   1     98.51    KANGLE ; Cah-Oh-Cah
66    1509  1510  1     110.00   125.52   ; Cah-Oh-H
71    1509  116   1     98.51    KANGLE ; Cah-Oh-Cah
71    1509  1510  1     110.00   125.52   ; Cah-Oh-H
116   1509  1510  1     110.00   125.52   ; Cah-Oh-H
1104  1511  1149  1     98.17    KANGLE ; Oh-Cah-Oh
1104  1511  1154  1     98.14    KANGLE ; Oh-Cah-Oh
1104  1511  1462  1     81.90    KANGLE ; Oh-Cah-Oh
1104  1511  1467  1     81.90    KANGLE ; Oh-Cah-Oh
1104  1511  1512  1     179.67   KANGLE ; Oh-Cah-Oh
1149  1511  1154  1     98.09    KANGLE ; Oh-Cah-Oh
1149  1511  1462  1     81.81    KANGLE ; Oh-Cah-Oh
1149  1511  1467  1     179.74   KANGLE ; Oh-Cah-Oh
1149  1511  1512  1     81.62    KANGLE ; Oh-Cah-Oh
1154  1511  1462  1     179.90   KANGLE ; Oh-Cah-Oh
1154  1511  1467  1     81.65    KANGLE ; Oh-Cah-Oh
1154  1511  1512  1     81.65    KANGLE ; Oh-Cah-Oh
1462  1511  1467  1     98.45    KANGLE ; Oh-Cah-Oh
1462  1511  1512  1     98.32    KANGLE ; Oh-Cah-Oh
1467  1511  1512  1     98.32    KANGLE ; Oh-Cah-Oh
1511  1512  1513  1     110.00   125.52   ; Cah-Oh-H
1511  1512  1556  1     98.51    KANGLE ; Cah-Oh-Cah
1511  1512  1561  1     98.51    KANGLE ; Cah-Oh-Cah
1513  1512  1556  1     110.00   125.52   ; H-Oh-Cah
1513  1512  1561  1     110.00   125.52   ; H-Oh-Cah
1556  1512  1561  1     98.20    KANGLE ; Cah-Oh-Cah
71    1514  76    1     98.36    KANGLE ; Cah-Oh-Cah
71    1514  121   1     98.30    KANGLE ; Cah-Oh-Cah
71    1514  1515  1     110.00   125.52   ; Cah-Oh-H
76    1514  121   1     98.70    KANGLE ; Cah-Oh-Cah
76    1514  1515  1     110.00   125.52   ; Cah-Oh-H
121   1514  1515  1     110.00   125.52   ; Cah-Oh-H
1109  1516  1154  1     98.17    KANGLE ; Oh-Cah-Oh
1109  1516  1159  1     98.17    KANGLE ; Oh-Cah-Oh
1109  1516  1467  1     81.92    KANGLE ; Oh-Cah-Oh
1109  1516  1472  1     81.90    KANGLE ; Oh-Cah-Oh
1109  1516  1517  1     179.67   KANGLE ; Oh-Cah-Oh
1154  1516  1159  1     97.93    KANGLE ; Oh-Cah-Oh
1154  1516  1467  1     81.65    KANGLE ; Oh-Cah-Oh
1154  1516  1472  1     179.74   KANGLE ; Oh-Cah-Oh
1154  1516  1517  1     81.62    KANGLE ; Oh-Cah-Oh
1159  1516  1467  1     179.58   KANGLE ; Oh-Cah-Oh
1159  1516  1472  1     81.81    KANGLE ; Oh-Cah-Oh
1159  1516  1517  1     81.62    KANGLE ; Oh-Cah-Oh
1467  1516  1472  1     98.60    KANGLE ; Oh-Cah-Oh
1467  1516  1517  1     98.29    KANGLE ; Oh-Cah-Oh
1472  1516  1517  1     98.32    KANGLE ; Oh-Cah-Oh
1516  1517  1518  1     110.00   125.52   ; Cah-Oh-H
1516  1517  1561  1     98.49    KANGLE ; Cah-Oh-Cah
1516  1517  1566  1     98.51    KANGLE ; Cah-Oh-Cah
1518  1517  1561  1     110.00   125.52   ; H-Oh-Cah
1518  1517  1566  1     110.00   125.52   ; H-Oh-Cah
1561  1517  1566  1     98.36    KANGLE ; Cah-Oh-Cah
76    1519  81    1     98.20    KANGLE ; Cah-Oh-Cah
76    1519  126   1     98.51    KANGLE ; Cah-Oh-Cah
76    1519  1520  1     110.00   125.52   ; Cah-Oh-H
81    1519  126   1     98.51    KANGLE ; Cah-Oh-Cah
81    1519  1520  1     110.00   125.52   ; Cah-Oh-H
126   1519  1520  1     110.00   125.52   ; Cah-Oh-H
1114  1521  1159  1     98.17    KANGLE ; Oh-Cah-Oh
1114  1521  1164  1     98.14    KANGLE ; Oh-Cah-Oh
1114  1521  1472  1     81.90    KANGLE ; Oh-Cah-Oh
1114  1521  1477  1     81.90    KANGLE ; Oh-Cah-Oh
1114  1521  1522  1     179.67   KANGLE ; Oh-Cah-Oh
1159  1521  1164  1     98.09    KANGLE ; Oh-Cah-Oh
1159  1521  1472  1     81.81    KANGLE ; Oh-Cah-Oh
1159  1521  1477  1     179.74   KANGLE ; Oh-Cah-Oh
1159  1521  1522  1     81.62    KANGLE ; Oh-Cah-Oh
1164  1521  1472  1     179.90   KANGLE ; Oh-Cah-Oh
1164  1521  1477  1     81.65    KANGLE ; Oh-Cah-Oh
1164  1521  1522  1     81.65    KANGLE ; Oh-Cah-Oh
1472  1521  1477  1     98.45    KANGLE ; Oh-Cah-Oh
1472  1521  1522  1     98.32    KANGLE ; Oh-Cah-Oh
1477  1521  1522  1     98.32    KANGLE ; Oh-Cah-Oh
1521  1522  1523  1     110.00   125.52   ; Cah-Oh-H
1521  1522  1566  1     98.51    KANGLE ; Cah-Oh-Cah
1521  1522  1571  1     98.49    KANGLE ; Cah-Oh-Cah
1523  1522  1566  1     110.00   125.52   ; H-Oh-Cah
1523  1522  1571  1     110.00   125.52   ; H-Oh-Cah
1566  1522  1571  1     98.36    KANGLE ; Cah-Oh-Cah
81    1524  86    1     98.36    KANGLE ; Cah-Oh-Cah
81    1524  131   1     98.49    KANGLE ; Cah-Oh-Cah
81    1524  1525  1     110.00   125.52   ; Cah-Oh-H
86    1524  131   1     98.51    KANGLE ; Cah-Oh-Cah
86    1524  1525  1     110.00   125.52   ; Cah-Oh-H
131   1524  1525  1     110.00   125.52   ; Cah-Oh-H
1119  1526  1164  1     98.17    KANGLE ; Oh-Cah-Oh
1119  1526  1169  1     98.17    KANGLE ; Oh-Cah-Oh
1119  1526  1477  1     81.92    KANGLE ; Oh-Cah-Oh
1119  1526  1482  1     81.90    KANGLE ; Oh-Cah-Oh
1119  1526  1527  1     179.67   KANGLE ; Oh-Cah-Oh
1164  1526  1169  1     97.93    KANGLE ; Oh-Cah-Oh
1164  1526  1477  1     81.65    KANGLE ; Oh-Cah-Oh
1164  1526  1482  1     179.74   KANGLE ; Oh-Cah-Oh
1164  1526  1527  1     81.62    KANGLE ; Oh-Cah-Oh
1169  1526  1477  1     179.58   KANGLE ; Oh-Cah-Oh
1169  1526  1482  1     81.81    KANGLE ; Oh-Cah-Oh
1169  1526  1527  1     81.62    KANGLE ; Oh-Cah-Oh
1477  1526  1482  1     98.60    KANGLE ; Oh-Cah-Oh
1477  1526  1527  1     98.29    KANGLE ; Oh-Cah-Oh
1482  1526  1527  1     98.32    KANGLE ; Oh-Cah-Oh
1526  1527  1528  1     110.00   125.52   ; Cah-Oh-H
1526  1527  1531  1     98.50    KANGLE ; Cah-Oh-Cah
1526  1527  1571  1     98.51    KANGLE ; Cah-Oh-Cah
1528  1527  1531  1     110.00   125.52   ; H-Oh-Cah
1528  1527  1571  1     110.00   125.52   ; H-Oh-Cah
1531  1527  1571  1     98.28    KANGLE ; Cah-Oh-Cah
46    1529  86    1     98.28    KANGLE ; Cah-Oh-Cah
46    1529  91    1     98.41    KANGLE ; Cah-Oh-Cah
46    1529  1530  1     110.00   125.52   ; Cah-Oh-H
86    1529  91    1     98.61    KANGLE ; Cah-Oh-Cah
86    1529  1530  1     110.00   125.52   ; Cah-Oh-H
91    1529  1530  1     110.00   125.52   ; Cah-Oh-H
1169  1531  1174  1     98.14    KANGLE ; Oh-Cah-Oh
1169  1531  1214  1     97.94    KANGLE ; Oh-Cah-Oh
1169  1531  1487  1     81.71    KANGLE ; Oh-Cah-Oh
1169  1531  1527  1     81.54    KANGLE ; Oh-Cah-Oh
1169  1531  1532  1     179.58   KANGLE ; Oh-Cah-Oh
1174  1531  1214  1     98.25    KANGLE ; Oh-Cah-Oh
1174  1531  1487  1     81.81    KANGLE ; Oh-Cah-Oh
1174  1531  1527  1     179.65   KANGLE ; Oh-Cah-Oh
1174  1531  1532  1     82.00    KANGLE ; Oh-Cah-Oh
1214  1531  1487  1     179.65   KANGLE ; Oh-Cah-Oh
1214  1531  1527  1     81.65    KANGLE ; Oh-Cah-Oh
1214  1531  1532  1     81.65    KANGLE ; Oh-Cah-Oh
1487  1531  1527  1     98.28    KANGLE ; Oh-Cah-Oh
1487  1531  1532  1     98.70    KANGLE ; Oh-Cah-Oh
1527  1531  1532  1     98.32    KANGLE ; Oh-Cah-Oh
1531  1532  1533  1     110.00   125.52   ; Cah-Oh-H
1531  1532  1576  1     98.50    KANGLE ; Cah-Oh-Cah
1531  1532  1581  1     98.10    KANGLE ; Cah-Oh-Cah
1533  1532  1576  1     110.00   125.52   ; H-Oh-Cah
1533  1532  1581  1     110.00   125.52   ; H-Oh-Cah
1576  1532  1581  1     98.60    KANGLE ; Cah-Oh-Cah
91    1534  96    1     98.45    KANGLE ; Cah-Oh-Cah
91    1534  141   1     98.32    KANGLE ; Cah-Oh-Cah
91    1534  1535  1     110.00   125.52   ; Cah-Oh-H
96    1534  141   1     98.32    KANGLE ; Cah-Oh-Cah
96    1534  1535  1     110.00   125.52   ; Cah-Oh-H
141   1534  1535  1     110.00   125.52   ; Cah-Oh-H
1129  1536  1174  1     98.04    KANGLE ; Oh-Cah-Oh
1129  1536  1179  1     98.04    KANGLE ; Oh-Cah-Oh
1129  1536  1487  1     81.62    KANGLE ; Oh-Cah-Oh
1129  1536  1492  1     81.62    KANGLE ; Oh-Cah-Oh
1129  1536  1537  1     179.79   KANGLE ; Oh-Cah-Oh
1174  1536  1179  1     98.17    KANGLE ; Oh-Cah-Oh
1174  1536  1487  1     81.81    KANGLE ; Oh-Cah-Oh
1174  1536  1492  1     179.66   KANGLE ; Oh-Cah-Oh
1174  1536  1537  1     81.82    KANGLE ; Oh-Cah-Oh
1179  1536  1487  1     179.66   KANGLE ; Oh-Cah-Oh
1179  1536  1492  1     81.81    KANGLE ; Oh-Cah-Oh
1179  1536  1537  1     81.82    KANGLE ; Oh-Cah-Oh
1487  1536  1492  1     98.20    KANGLE ; Oh-Cah-Oh
1487  1536  1537  1     98.51    KANGLE ; Oh-Cah-Oh
1492  1536  1537  1     98.51    KANGLE ; Oh-Cah-Oh
1536  1537  1538  1     110.00   125.52   ; Cah-Oh-H
1536  1537  1581  1     98.32    KANGLE ; Cah-Oh-Cah
1536  1537  1586  1     98.32    KANGLE ; Cah-Oh-Cah
1538  1537  1581  1     110.00   125.52   ; H-Oh-Cah
1538  1537  1586  1     110.00   125.52   ; H-Oh-Cah
1581  1537  1586  1     98.45    KANGLE ; Cah-Oh-Cah
96    1539  101   1     98.60    KANGLE ; Cah-Oh-Cah
96    1539  146   1     98.32    KANGLE ; Cah-Oh-Cah
96    1539  1540  1     110.00   125.52   ; Cah-Oh-H
101   1539  146   1     98.29    KANGLE ; Cah-Oh-Cah
101   1539  1540  1     110.00   125.52   ; Cah-Oh-H
146   1539  1540  1     110.00   125.52   ; Cah-Oh-H
1134  1541  1179  1     98.02    KANGLE ; Oh-Cah-Oh
1134  1541  1184  1     98.04    KANGLE ; Oh-Cah-Oh
1134  1541  1492  1     81.65    KANGLE ; Oh-Cah-Oh
1134  1541  1497  1     81.62    KANGLE ; Oh-Cah-Oh
1134  1541  1542  1     179.68   KANGLE ; Oh-Cah-Oh
1179  1541  1184  1     98.33    KANGLE ; Oh-Cah-Oh
1179  1541  1492  1     81.50    KANGLE ; Oh-Cah-Oh
1179  1541  1497  1     179.63   KANGLE ; Oh-Cah-Oh
1179  1541  1542  1     81.66    KANGLE ; Oh-Cah-Oh
1184  1541  1492  1     179.62   KANGLE ; Oh-Cah-Oh
1184  1541  1497  1     81.81    KANGLE ; Oh-Cah-Oh
1184  1541  1542  1     82.00    KANGLE ; Oh-Cah-Oh
1492  1541  1497  1     98.36    KANGLE ; Oh-Cah-Oh
1492  1541  1542  1     98.30    KANGLE ; Oh-Cah-Oh
1497  1541  1542  1     98.70    KANGLE ; Oh-Cah-Oh
1541  1542  1543  1     110.00   125.52   ; Cah-Oh-H
1541  1542  1586  1     98.50    KANGLE ; Cah-Oh-Cah
1541  1542  1591  1     98.10    KANGLE ; Cah-Oh-Cah
1543  1542  1586  1     110.00   125.52   ; H-Oh-Cah
1543  1542  1591  1     110.00   125.52   ; H-Oh-Cah
1586  1542  1591  1     98.60    KANGLE ; Cah-Oh-Cah
101   1544  106   1     98.45    KANGLE ; Cah-Oh-Cah
101   1544  151   1     98.32    KANGLE ; Cah-Oh-Cah
101   1544  1545  1     110.00   125.52   ; Cah-Oh-H
106   1544  151   1     98.32    KANGLE ; Cah-Oh-Cah
106   1544  1545  1     110.00   125.52   ; Cah-Oh-H
151   1544  1545  1     110.00   125.52   ; Cah-Oh-H
1139  1546  1184  1     98.04    KANGLE ; Oh-Cah-Oh
1139  1546  1189  1     98.04    KANGLE ; Oh-Cah-Oh
1139  1546  1497  1     81.62    KANGLE ; Oh-Cah-Oh
1139  1546  1502  1     81.62    KANGLE ; Oh-Cah-Oh
1139  1546  1547  1     179.79   KANGLE ; Oh-Cah-Oh
1184  1546  1189  1     98.17    KANGLE ; Oh-Cah-Oh
1184  1546  1497  1     81.81    KANGLE ; Oh-Cah-Oh
1184  1546  1502  1     179.66   KANGLE ; Oh-Cah-Oh
1184  1546  1547  1     81.82    KANGLE ; Oh-Cah-Oh
1189  1546  1497  1     179.66   KANGLE ; Oh-Cah-Oh
1189  1546  1502  1     81.81    KANGLE ; Oh-Cah-Oh
1189  1546  1547  1     81.82    KANGLE ; Oh-Cah-Oh
1497  1546  1502  1     98.20    KANGLE ; Oh-Cah-Oh
1497  1546  1547  1     98.51    KANGLE ; Oh-Cah-Oh
1502  1546  1547  1     98.51    KANGLE ; Oh-Cah-Oh
1546  1547  1548  1     110.00   125.52   ; Cah-Oh-H
1546  1547  1591  1     98.32    KANGLE ; Cah-Oh-Cah
1546  1547  1596  1     98.32    KANGLE ; Cah-Oh-Cah
1548  1547  1591  1     110.00   125.52   ; H-Oh-Cah
1548  1547  1596  1     110.00   125.52   ; H-Oh-Cah
1591  1547  1596  1     98.45    KANGLE ; Cah-Oh-Cah
106   1549  111   1     98.60    KANGLE ; Cah-Oh-Cah
106   1549  156   1     98.32    KANGLE ; Cah-Oh-Cah
106   1549  1550  1     110.00   125.52   ; Cah-Oh-H
111   1549  156   1     98.29    KANGLE ; Cah-Oh-Cah
111   1549  1550  1     110.00   125.52   ; Cah-Oh-H
156   1549  1550  1     110.00   125.52   ; Cah-Oh-H
1144  1551  1189  1     98.02    KANGLE ; Oh-Cah-Oh
1144  1551  1194  1     98.04    KANGLE ; Oh-Cah-Oh
1144  1551  1502  1     81.65    KANGLE ; Oh-Cah-Oh
1144  1551  1507  1     81.62    KANGLE ; Oh-Cah-Oh
1144  1551  1552  1     179.68   KANGLE ; Oh-Cah-Oh
1189  1551  1194  1     98.33    KANGLE ; Oh-Cah-Oh
1189  1551  1502  1     81.50    KANGLE ; Oh-Cah-Oh
1189  1551  1507  1     179.63   KANGLE ; Oh-Cah-Oh
1189  1551  1552  1     81.66    KANGLE ; Oh-Cah-Oh
1194  1551  1502  1     179.62   KANGLE ; Oh-Cah-Oh
1194  1551  1507  1     81.81    KANGLE ; Oh-Cah-Oh
1194  1551  1552  1     82.00    KANGLE ; Oh-Cah-Oh
1502  1551  1507  1     98.36    KANGLE ; Oh-Cah-Oh
1502  1551  1552  1     98.30    KANGLE ; Oh-Cah-Oh
1507  1551  1552  1     98.70    KANGLE ; Oh-Cah-Oh
1551  1552  1553  1     110.00   125.52   ; Cah-Oh-H
1551  1552  1596  1     98.50    KANGLE ; Cah-Oh-Cah
1551  1552  1601  1     98.10    KANGLE ; Cah-Oh-Cah
1553  1552  1596  1     110.00   125.52   ; H-Oh-Cah
1553  1552  1601  1     110.00   125.52   ; H-Oh-Cah
1596  1552  1601  1     98.60    KANGLE ; Cah-Oh-Cah
111   1554  116   1     98.45    KANGLE ; Cah-Oh-Cah
111   1554  161   1     98.32    KANGLE ; Cah-Oh-Cah
111   1554  1555  1     110.00   125.52   ; Cah-Oh-H
116   1554  161   1     98.32    KANGLE ; Cah-Oh-Cah
116   1554  1555  1     110.00   125.52   ; Cah-Oh-H
161   1554  1555  1     110.00   125.52   ; Cah-Oh-H
1149  1556  1194  1     98.04    KANGLE ; Oh-Cah-Oh
1149  1556  1199  1     98.04    KANGLE ; Oh-Cah-Oh
1149  1556  1507  1     81.62    KANGLE ; Oh-Cah-Oh
1149  1556  1512  1     81.62    KANGLE ; Oh-Cah-Oh
1149  1556  1557  1     179.79   KANGLE ; Oh-Cah-Oh
1194  1556  1199  1     98.17    KANGLE ; Oh-Cah-Oh
1194  1556  1507  1     81.81    KANGLE ; Oh-Cah-Oh
1194  1556  1512  1     179.66   KANGLE ; Oh-Cah-Oh
1194  1556  1557  1     81.82    KANGLE ; Oh-Cah-Oh
1199  1556  1507  1     179.66   KANGLE ; Oh-Cah-Oh
1199  1556  1512  1     81.81    KANGLE ; Oh-Cah-Oh
1199  1556  1557  1     81.82    KANGLE ; Oh-Cah-Oh
1507  1556  1512  1     98.20    KANGLE ; Oh-Cah-Oh
1507  1556  1557  1     98.51    KANGLE ; Oh-Cah-Oh
1512  1556  1557  1     98.51    KANGLE ; Oh-Cah-Oh
1556  1557  1558  1     110.00   125.52   ; Cah-Oh-H
1556  1557  1601  1     98.32    KANGLE ; Cah-Oh-Cah
1556  1557  1606  1     98.32    KANGLE ; Cah-Oh-Cah
1558  1557  1601  1     110.00   125.52   ; H-Oh-Cah
1558  1557  1606  1     110.00   125.52   ; H-Oh-Cah
1601  1557  1606  1     98.45    KANGLE ; Cah-Oh-Cah
116   1559  121   1     98.45    KANGLE ; Cah-Oh-Cah
116   1559  166   1     98.32    KANGLE ; Cah-Oh-Cah
116   1559  1560  1     110.00   125.52   ; Cah-Oh-H
121   1559  166   1     98.32    KANGLE ; Cah-Oh-Cah
121   1559  1560  1     110.00   125.52   ; Cah-Oh-H
166   1559  1560  1     110.00   125.52   ; Cah-Oh-H
1154  1561  1199  1     98.23    KANGLE ; Oh-Cah-Oh
1154  1561  1204  1     97.83    KANGLE ; Oh-Cah-Oh
1154  1561  1512  1     81.81    KANGLE ; Oh-Cah-Oh
1154  1561  1517  1     81.46    KANGLE ; Oh-Cah-Oh
1154  1561  1562  1     179.68   KANGLE ; Oh-Cah-Oh
1199  1561  1204  1     98.33    KANGLE ; Oh-Cah-Oh
1199  1561  1512  1     81.81    KANGLE ; Oh-Cah-Oh
1199  1561  1517  1     179.62   KANGLE ; Oh-Cah-Oh
1199  1561  1562  1     81.82    KANGLE ; Oh-Cah-Oh
1204  1561  1512  1     179.63   KANGLE ; Oh-Cah-Oh
1204  1561  1517  1     81.50    KANGLE ; Oh-Cah-Oh
1204  1561  1562  1     81.85    KANGLE ; Oh-Cah-Oh
1512  1561  1517  1     98.36    KANGLE ; Oh-Cah-Oh
1512  1561  1562  1     98.51    KANGLE ; Oh-Cah-Oh
1517  1561  1562  1     98.49    KANGLE ; Oh-Cah-Oh
1561  1562  1563  1     110.00   125.52   ; Cah-Oh-H
1561  1562  1606  1     98.32    KANGLE ; Cah-Oh-Cah
1561  1562  1611  1     98.29    KANGLE ; Cah-Oh-Cah
1563  1562  1606  1     110.00   125.52   ; H-Oh-Cah
1563  1562  1611  1     110.00   125.52   ; H-Oh-Cah
1606  1562  1611  1     98.60    KANGLE ; Cah-Oh-Cah
121   1564  126   1     98.60    KANGLE ; Cah-Oh-Cah
121   1564  171   1     98.29    KANGLE ; Cah-Oh-Cah
121   1564  1565  1     110.00   125.52   ; Cah-Oh-H
126   1564  171   1     98.32    KANGLE ; Cah-Oh-Cah
126   1564  1565  1     110.00   125.52   ; Cah-Oh-H
171   1564  1565  1     110.00   125.52   ; Cah-Oh-H
1159  1566  1204  1     98.04    KANGLE ; Oh-Cah-Oh
1159  1566  1209  1     98.04    KANGLE ; Oh-Cah-Oh
1159  1566  1517  1     81.62    KANGLE ; Oh-Cah-Oh
1159  1566  1522  1     81.62    KANGLE ; Oh-Cah-Oh
1159  1566  1567  1     179.79   KANGLE ; Oh-Cah-Oh
1204  1566  1209  1     98.17    KANGLE ; Oh-Cah-Oh
1204  1566  1517  1     81.81    KANGLE ; Oh-Cah-Oh
1204  1566  1522  1     179.66   KANGLE ; Oh-Cah-Oh
1204  1566  1567  1     81.82    KANGLE ; Oh-Cah-Oh
1209  1566  1517  1     179.66   KANGLE ; Oh-Cah-Oh
1209  1566  1522  1     81.81    KANGLE ; Oh-Cah-Oh
1209  1566  1567  1     81.82    KANGLE ; Oh-Cah-Oh
1517  1566  1522  1     98.20    KANGLE ; Oh-Cah-Oh
1517  1566  1567  1     98.51    KANGLE ; Oh-Cah-Oh
1522  1566  1567  1     98.51    KANGLE ; Oh-Cah-Oh
1566  1567  1568  1     110.00   125.52   ; Cah-Oh-H
1566  1567  1611  1     98.32    KANGLE ; Cah-Oh-Cah
1566  1567  1616  1     98.32    KANGLE ; Cah-Oh-Cah
1568  1567  1611  1     110.00   125.52   ; H-Oh-Cah
1568  1567  1616  1     110.00   125.52   ; H-Oh-Cah
1611  1567  1616  1     98.45    KANGLE ; Cah-Oh-Cah
126   1569  131   1     98.60    KANGLE ; Cah-Oh-Cah
126   1569  176   1     98.32    KANGLE ; Cah-Oh-Cah
126   1569  1570  1     110.00   125.52   ; Cah-Oh-H
131   1569  176   1     98.29    KANGLE ; Cah-Oh-Cah
131   1569  1570  1     110.00   125.52   ; Cah-Oh-H
176   1569  1570  1     110.00   125.52   ; Cah-Oh-H
1164  1571  1209  1     98.02    KANGLE ; Oh-Cah-Oh
1164  1571  1214  1     98.04    KANGLE ; Oh-Cah-Oh
1164  1571  1522  1     81.65    KANGLE ; Oh-Cah-Oh
1164  1571  1527  1     81.62    KANGLE ; Oh-Cah-Oh
1164  1571  1572  1     179.68   KANGLE ; Oh-Cah-Oh
1209  1571  1214  1     98.33    KANGLE ; Oh-Cah-Oh
1209  1571  1522  1     81.50    KANGLE ; Oh-Cah-Oh
1209  1571  1527  1     179.63   KANGLE ; Oh-Cah-Oh
1209  1571  1572  1     81.66    KANGLE ; Oh-Cah-Oh
1214  1571  1522  1     179.62   KANGLE ; Oh-Cah-Oh
1214  1571  1527  1     81.81    KANGLE ; Oh-Cah-Oh
1214  1571  1572  1     82.00    KANGLE ; Oh-Cah-Oh
1522  1571  1527  1     98.36    KANGLE ; Oh-Cah-Oh
1522  1571  1572  1     98.30    KANGLE ; Oh-Cah-Oh
1527  1571  1572  1     98.70    KANGLE ; Oh-Cah-Oh
1571  1572  1573  1     110.00   125.52   ; Cah-Oh-H
1571  1572  1576  1     98.12    KANGLE ; Cah-Oh-Cah
1571  1572  1616  1     98.50    KANGLE ; Cah-Oh-Cah
1573  1572  1576  1     110.00   125.52   ; H-Oh-Cah
1573  1572  1616  1     110.00   125.52   ; H-Oh-Cah
1576  1572  1616  1     98.53    KANGLE ; Cah-Oh-Cah
91    1574  131   1     98.53    KANGLE ; Cah-Oh-Cah
91    1574  136   1     98.40    KANGLE ; Cah-Oh-Cah
91    1574  1575  1     110.00   125.52   ; Cah-Oh-H
131   1574  136   1     98.22    KANGLE ; Cah-Oh-Cah
131   1574  1575  1     110.00   125.52   ; Cah-Oh-H
136   1574  1575  1     110.00   125.52   ; Cah-Oh-H
1214  1576  1219  1     98.12    KANGLE ; Oh-Cah-Oh
1214  1576  1259  1     98.35    KANGLE ; Oh-Cah-Oh
1214  1576  1532  1     81.73    KANGLE ; Oh-Cah-Oh
1214  1576  1572  1     81.93    KANGLE ; Oh-Cah-Oh
1214  1576  1577  1     179.76   KANGLE ; Oh-Cah-Oh
1219  1576  1259  1     98.01    KANGLE ; Oh-Cah-Oh
1219  1576  1532  1     81.65    KANGLE ; Oh-Cah-Oh
1219  1576  1572  1     179.82   KANGLE ; Oh-Cah-Oh
1219  1576  1577  1     81.65    KANGLE ; Oh-Cah-Oh
1259  1576  1532  1     179.66   KANGLE ; Oh-Cah-Oh
1259  1576  1572  1     81.81    KANGLE ; Oh-Cah-Oh
1259  1576  1577  1     81.61    KANGLE ; Oh-Cah-Oh
1532  1576  1572  1     98.53    KANGLE ; Oh-Cah-Oh
1532  1576  1577  1     98.32    KANGLE ; Oh-Cah-Oh
1572  1576  1577  1     98.30    KANGLE ; Oh-Cah-Oh
1576  1577  1578  1     110.00   125.52   ; Cah-Oh-H
1576  1577  1621  1     98.51    KANGLE ; Cah-Oh-Cah
1576  1577  1626  1     98.49    KANGLE ; Cah-Oh-Cah
1578  1577  1621  1     110.00   125.52   ; H-Oh-Cah
1578  1577  1626  1     110.00   125.52   ; H-Oh-Cah
1621  1577  1626  1     98.36    KANGLE ; Cah-Oh-Cah
136   1579  141   1     98.36    KANGLE ; Cah-Oh-Cah
136   1579  186   1     98.49    KANGLE ; Cah-Oh-Cah
136   1579  1580  1     110.00   125.52   ; Cah-Oh-H
141   1579  186   1     98.51    KANGLE ; Cah-Oh-Cah
141   1579  1580  1     110.00   125.52   ; Cah-Oh-H
186   1579  1580  1     110.00   125.52   ; Cah-Oh-H
1174  1581  1219  1     98.24    KANGLE ; Oh-Cah-Oh
1174  1581  1224  1     98.24    KANGLE ; Oh-Cah-Oh
1174  1581  1532  1     81.85    KANGLE ; Oh-Cah-Oh
1174  1581  1537  1     81.82    KANGLE ; Oh-Cah-Oh
1174  1581  1582  1     179.79   KANGLE ; Oh-Cah-Oh
1219  1581  1224  1     97.93    KANGLE ; Oh-Cah-Oh
1219  1581  1532  1     81.65    KANGLE ; Oh-Cah-Oh
1219  1581  1537  1     179.74   KANGLE ; Oh-Cah-Oh
1219  1581  1582  1     81.62    KANGLE ; Oh-Cah-Oh
1224  1581  1532  1     179.58   KANGLE ; Oh-Cah-Oh
1224  1581  1537  1     81.81    KANGLE ; Oh-Cah-Oh
1224  1581  1582  1     81.62    KANGLE ; Oh-Cah-Oh
1532  1581  1537  1     98.60    KANGLE ; Oh-Cah-Oh
1532  1581  1582  1     98.29    KANGLE ; Oh-Cah-Oh
1537  1581  1582  1     98.32    KANGLE ; Oh-Cah-Oh
1581  1582  1583  1     110.00   125.52   ; Cah-Oh-H
1581  1582  1626  1     98.51    KANGLE ; Cah-Oh-Cah
1581  1582  1631  1     98.51    KANGLE ; Cah-Oh-Cah
1583  1582  1626  1     110.00   125.52   ; H-Oh-Cah
1583  1582  1631  1     110.00   125.52   ; H-Oh-Cah
1626  1582  1631  1     98.20    KANGLE ; Cah-Oh-Cah
141   1584  146   1     98.20    KANGLE ; Cah-Oh-Cah
141   1584  191   1     98.51    KANGLE ; Cah-Oh-Cah
141   1584  1585  1     110.00   125.52   ; Cah-Oh-H
146   1584  191   1     98.51    KANGLE ; Cah-Oh-Cah
146   1584  1585  1     110.00   125.52   ; Cah-Oh-H
191   1584  1585  1     110.00   125.52   ; Cah-Oh-H
1179  1586  1224  1     98.24    KANGLE ; Oh-Cah-Oh
1179  1586  1229  1     98.22    KANGLE ; Oh-Cah-Oh
1179  1586  1537  1     81.82    KANGLE ; Oh-Cah-Oh
1179  1586  1542  1     81.82    KANGLE ; Oh-Cah-Oh
1179  1586  1587  1     179.79   KANGLE ; Oh-Cah-Oh
1224  1586  1229  1     98.09    KANGLE ; Oh-Cah-Oh
1224  1586  1537  1     81.81    KANGLE ; Oh-Cah-Oh
1224  1586  1542  1     179.74   KANGLE ; Oh-Cah-Oh
1224  1586  1587  1     81.62    KANGLE ; Oh-Cah-Oh
1229  1586  1537  1     179.90   KANGLE ; Oh-Cah-Oh
1229  1586  1542  1     81.65    KANGLE ; Oh-Cah-Oh
1229  1586  1587  1     81.65    KANGLE ; Oh-Cah-Oh
1537  1586  1542  1     98.45    KANGLE ; Oh-Cah-Oh
1537  1586  1587  1     98.32    KANGLE ; Oh-Cah-Oh
1542  1586  1587  1     98.32    KANGLE ; Oh-Cah-Oh
1586  1587  1588  1     110.00   125.52   ; Cah-Oh-H
1586  1587  1631  1     98.51    KANGLE ; Cah-Oh-Cah
1586  1587  1636  1     98.49    KANGLE ; Cah-Oh-Cah
1588  1587  1631  1     110.00   125.52   ; H-Oh-Cah
1588  1587  1636  1     110.00   125.52   ; H-Oh-Cah
1631  1587  1636  1     98.36    KANGLE ; Cah-Oh-Cah
146   1589  151   1     98.36    KANGLE ; Cah-Oh-Cah
146   1589  196   1     98.49    KANGLE ; Cah-Oh-Cah
146   1589  1590  1     110.00   125.52   ; Cah-Oh-H
151   1589  196   1     98.51    KANGLE ; Cah-Oh-Cah
151   1589  1590  1     110.00   125.52   ; Cah-Oh-H
196   1589  1590  1     110.00   125.52   ; Cah-Oh-H
1184  1591  1229  1     98.24    KANGLE ; Oh-Cah-Oh
1184  1591  1234  1     98.24    KANGLE ; Oh-Cah-Oh
1184  1591  1542  1     81.85    KANGLE ; Oh-Cah-Oh
1184  1591  1547  1     81.82    KANGLE ; Oh-Cah-Oh
1184  1591  1592  1     179.79   KANGLE ; Oh-Cah-Oh
1229  1591  1234  1     97.93    KANGLE ; Oh-Cah-Oh
1229  1591  1542  1     81.65    KANGLE ; Oh-Cah-Oh
1229  1591  1547  1     179.74   KANGLE ; Oh-Cah-Oh
1229  1591  1592  1     81.62    KANGLE ; Oh-Cah-Oh
1234  1591  1542  1     179.58   KANGLE ; Oh-Cah-Oh
1234  1591  1547  1     81.81    KANGLE ; Oh-Cah-Oh
1234  1591  1592  1     81.62    KANGLE ; Oh-Cah-Oh
1542  1591  1547  1     98.60    KANGLE ; Oh-Cah-Oh
1542  1591  1592  1     98.29    KANGLE ; Oh-Cah-Oh
1547  1591  1592  1     98.32    KANGLE ; Oh-Cah-Oh
1591  1592  1593  1     110.00   125.52   ; Cah-Oh-H
1591  1592  1636  1     98.51    KANGLE ; Cah-Oh-Cah
1591  1592  1641  1     98.51    KANGLE ; Cah-Oh-Cah
1593  1592  1636  1     110.00   125.52   ; H-Oh-Cah
1593  1592  1641  1     110.00   125.52   ; H-Oh-Cah
1636  1592  1641  1     98.20    KANGLE ; Cah-Oh-Cah
151   1594  156   1     98.20    KANGLE ; Cah-Oh-Cah
151   1594  201   1     98.51    KANGLE ; Cah-Oh-Cah
151   1594  1595  1     110.00   125.52   ; Cah-Oh-H
156   1594  201   1     98.51    KANGLE ; Cah-Oh-Cah
156   1594  1595  1     110.00   125.52   ; Cah-Oh-H
201   1594  1595  1     110.00   125.52   ; Cah-Oh-H
1189  1596  1234  1     98.24    KANGLE ; Oh-Cah-Oh
1189  1596  1239  1     98.22    KANGLE ; Oh-Cah-Oh
1189  1596  1547  1     81.82    KANGLE ; Oh-Cah-Oh
1189  1596  1552  1     81.82    KANGLE ; Oh-Cah-Oh
1189  1596  1597  1     179.79   KANGLE ; Oh-Cah-Oh
1234  1596  1239  1     98.09    KANGLE ; Oh-Cah-Oh
1234  1596  1547  1     81.81    KANGLE ; Oh-Cah-Oh
1234  1596  1552  1     179.74   KANGLE ; Oh-Cah-Oh
1234  1596  1597  1     81.62    KANGLE ; Oh-Cah-Oh
1239  1596  1547  1     179.90   KANGLE ; Oh-Cah-Oh
1239  1596  1552  1     81.65    KANGLE ; Oh-Cah-Oh
1239  1596  1597  1     81.65    KANGLE ; Oh-Cah-Oh
1547  1596  1552  1     98.45    KANGLE ; Oh-Cah-Oh
1547  1596  1597  1     98.32    KANGLE ; Oh-Cah-Oh
1552  1596  1597  1     98.32    KANGLE ; Oh-Cah-Oh
1596  1597  1598  1     110.00   125.52   ; Cah-Oh-H
1596  1597  1641  1     98.51    KANGLE ; Cah-Oh-Cah
1596  1597  1646  1     98.49    KANGLE ; Cah-Oh-Cah
1598  1597  1641  1     110.00   125.52   ; H-Oh-Cah
1598  1597  1646  1     110.00   125.52   ; H-Oh-Cah
1641  1597  1646  1     98.36    KANGLE ; Cah-Oh-Cah
156   1599  161   1     98.36    KANGLE ; Cah-Oh-Cah
156   1599  206   1     98.49    KANGLE ; Cah-Oh-Cah
156   1599  1600  1     110.00   125.52   ; Cah-Oh-H
161   1599  206   1     98.51    KANGLE ; Cah-Oh-Cah
161   1599  1600  1     110.00   125.52   ; Cah-Oh-H
206   1599  1600  1     110.00   125.52   ; Cah-Oh-H
1194  1601  1239  1     98.24    KANGLE ; Oh-Cah-Oh
1194  1601  1244  1     98.24    KANGLE ; Oh-Cah-Oh
1194  1601  1552  1     81.85    KANGLE ; Oh-Cah-Oh
1194  1601  1557  1     81.82    KANGLE ; Oh-Cah-Oh
1194  1601  1602  1     179.79   KANGLE ; Oh-Cah-Oh
1239  1601  1244  1     97.93    KANGLE ; Oh-Cah-Oh
1239  1601  1552  1     81.65    KANGLE ; Oh-Cah-Oh
1239  1601  1557  1     179.74   KANGLE ; Oh-Cah-Oh
1239  1601  1602  1     81.62    KANGLE ; Oh-Cah-Oh
1244  1601  1552  1     179.58   KANGLE ; Oh-Cah-Oh
1244  1601  1557  1     81.81    KANGLE ; Oh-Cah-Oh
1244  1601  1602  1     81.62    KANGLE ; Oh-Cah-Oh
1552  1601  1557  1     98.60    KANGLE ; Oh-Cah-Oh
1552  1601  1602  1     98.29    KANGLE ; Oh-Cah-Oh
1557  1601  1602  1     98.32    KANGLE ; Oh-Cah-Oh
1601  1602  1603  1     110.00   125.52   ; Cah-Oh-H
1601  1602  1646  1     98.51    KANGLE ; Cah-Oh-Cah
1601  1602  1651  1     98.51    KANGLE ; Cah-Oh-Cah
1603  1602  1646  1     110.00   125.52   ; H-Oh-Cah
1603  1602  1651  1     110.00   125.52   ; H-Oh-Cah
1646  1602  1651  1     98.20    KANGLE ; Cah-Oh-Cah
161   1604  166   1     98.20    KANGLE ; Cah-Oh-Cah
161   1604  211   1     98.51    KANGLE ; Cah-Oh-Cah
161   1604  1605  1     110.00   125.52   ; Cah-Oh-H
166   1604  211   1     98.51    KANGLE ; Cah-Oh-Cah
166   1604  1605  1     110.00   125.52   ; Cah-Oh-H
211   1604  1605  1     110.00   125.52   ; Cah-Oh-H
1199  1606  1244  1     98.24    KANGLE ; Oh-Cah-Oh
1199  1606  1249  1     98.22    KANGLE ; Oh-Cah-Oh
1199  1606  1557  1     81.82    KANGLE ; Oh-Cah-Oh
1199  1606  1562  1     81.82    KANGLE ; Oh-Cah-Oh
1199  1606  1607  1     179.79   KANGLE ; Oh-Cah-Oh
1244  1606  1249  1     98.09    KANGLE ; Oh-Cah-Oh
1244  1606  1557  1     81.81    KANGLE ; Oh-Cah-Oh
1244  1606  1562  1     179.74   KANGLE ; Oh-Cah-Oh
1244  1606  1607  1     81.62    KANGLE ; Oh-Cah-Oh
1249  1606  1557  1     179.90   KANGLE ; Oh-Cah-Oh
1249  1606  1562  1     81.65    KANGLE ; Oh-Cah-Oh
1249  1606  1607  1     81.65    KANGLE ; Oh-Cah-Oh
1557  1606  1562  1     98.45    KANGLE ; Oh-Cah-Oh
1557  1606  1607  1     98.32    KANGLE ; Oh-Cah-Oh
1562  1606  1607  1     98.32    KANGLE ; Oh-Cah-Oh
1606  1607  1608  1     110.00   125.52   ; Cah-Oh-H
1606  1607  1651  1     98.51    KANGLE ; Cah-Oh-Cah
1606  1607  1656  1     98.49    KANGLE ; Cah-Oh-Cah
1608  1607  1651  1     110.00   125.52   ; H-Oh-Cah
1608  1607  1656  1     110.00   125.52   ; H-Oh-Cah
1651  1607  1656  1     98.36    KANGLE ; Cah-Oh-Cah
166   1609  171   1     98.36    KANGLE ; Cah-Oh-Cah
166   1609  216   1     98.49    KANGLE ; Cah-Oh-Cah
166   1609  1610  1     110.00   125.52   ; Cah-Oh-H
171   1609  216   1     98.51    KANGLE ; Cah-Oh-Cah
171   1609  1610  1     110.00   125.52   ; Cah-Oh-H
216   1609  1610  1     110.00   125.52   ; Cah-Oh-H
1204  1611  1249  1     98.24    KANGLE ; Oh-Cah-Oh
1204  1611  1254  1     98.24    KANGLE ; Oh-Cah-Oh
1204  1611  1562  1     81.85    KANGLE ; Oh-Cah-Oh
1204  1611  1567  1     81.82    KANGLE ; Oh-Cah-Oh
1204  1611  1612  1     179.79   KANGLE ; Oh-Cah-Oh
1249  1611  1254  1     97.93    KANGLE ; Oh-Cah-Oh
1249  1611  1562  1     81.65    KANGLE ; Oh-Cah-Oh
1249  1611  1567  1     179.74   KANGLE ; Oh-Cah-Oh
1249  1611  1612  1     81.62    KANGLE ; Oh-Cah-Oh
1254  1611  1562  1     179.58   KANGLE ; Oh-Cah-Oh
1254  1611  1567  1     81.81    KANGLE ; Oh-Cah-Oh
1254  1611  1612  1     81.62    KANGLE ; Oh-Cah-Oh
1562  1611  1567  1     98.60    KANGLE ; Oh-Cah-Oh
1562  1611  1612  1     98.29    KANGLE ; Oh-Cah-Oh
1567  1611  1612  1     98.32    KANGLE ; Oh-Cah-Oh
1611  1612  1613  1     110.00   125.52   ; Cah-Oh-H
1611  1612  1656  1     98.51    KANGLE ; Cah-Oh-Cah
1611  1612  1661  1     98.51    KANGLE ; Cah-Oh-Cah
1613  1612  1656  1     110.00   125.52   ; H-Oh-Cah
1613  1612  1661  1     110.00   125.52   ; H-Oh-Cah
1656  1612  1661  1     98.20    KANGLE ; Cah-Oh-Cah
171   1614  176   1     98.20    KANGLE ; Cah-Oh-Cah
171   1614  221   1     98.51    KANGLE ; Cah-Oh-Cah
171   1614  1615  1     110.00   125.52   ; Cah-Oh-H
176   1614  221   1     98.51    KANGLE ; Cah-Oh-Cah
176   1614  1615  1     110.00   125.52   ; Cah-Oh-H
221   1614  1615  1     110.00   125.52   ; Cah-Oh-H
1209  1616  1254  1     98.24    KANGLE ; Oh-Cah-Oh
1209  1616  1259  1     98.22    KANGLE ; Oh-Cah-Oh
1209  1616  1567  1     81.82    KANGLE ; Oh-Cah-Oh
1209  1616  1572  1     81.82    KANGLE ; Oh-Cah-Oh
1209  1616  1617  1     179.79   KANGLE ; Oh-Cah-Oh
1254  1616  1259  1     98.09    KANGLE ; Oh-Cah-Oh
1254  1616  1567  1     81.81    KANGLE ; Oh-Cah-Oh
1254  1616  1572  1     179.74   KANGLE ; Oh-Cah-Oh
1254  1616  1617  1     81.62    KANGLE ; Oh-Cah-Oh
1259  1616  1567  1     179.90   KANGLE ; Oh-Cah-Oh
1259  1616  1572  1     81.65    KANGLE ; Oh-Cah-Oh
1259  1616  1617  1     81.65    KANGLE ; Oh-Cah-Oh
1567  1616  1572  1     98.45    KANGLE ; Oh-Cah-Oh
1567  1616  1617  1     98.32    KANGLE ; Oh-Cah-Oh
1572  1616  1617  1     98.32    KANGLE ; Oh-Cah-Oh
1616  1617  1618  1     110.00   125.52   ; Cah-Oh-H
1616  1617  1621  1     98.50    KANGLE ; Cah-Oh-Cah
1616  1617  1661  1     98.51    KANGLE ; Cah-Oh-Cah
1618  1617  1621  1     110.00   125.52   ; H-Oh-Cah
1618  1617  1661  1     110.00   125.52   ; H-Oh-Cah
1621  1617  1661  1     98.28    KANGLE ; Cah-Oh-Cah
136   1619  176   1     98.28    KANGLE ; Cah-Oh-Cah
136   1619  181   1     98.62    KANGLE ; Cah-Oh-Cah
136   1619  1620  1     110.00   125.52   ; Cah-Oh-H
176   1619  181   1     98.39    KANGLE ; Cah-Oh-Cah
176   1619  1620  1     110.00   125.52   ; Cah-Oh-H
181   1619  1620  1     110.00   125.52   ; Cah-Oh-H
1259  1621  1264  1     97.95    KANGLE ; Oh-Cah-Oh
1259  1621  1304  1     98.12    KANGLE ; Oh-Cah-Oh
1259  1621  1577  1     81.53    KANGLE ; Oh-Cah-Oh
1259  1621  1617  1     81.73    KANGLE ; Oh-Cah-Oh
1259  1621  1622  1     179.76   KANGLE ; Oh-Cah-Oh
1264  1621  1304  1     98.25    KANGLE ; Oh-Cah-Oh
1264  1621  1577  1     81.81    KANGLE ; Oh-Cah-Oh
1264  1621  1617  1     179.65   KANGLE ; Oh-Cah-Oh
1264  1621  1622  1     81.82    KANGLE ; Oh-Cah-Oh
1304  1621  1577  1     179.65   KANGLE ; Oh-Cah-Oh
1304  1621  1617  1     81.65    KANGLE ; Oh-Cah-Oh
1304  1621  1622  1     81.83    KANGLE ; Oh-Cah-Oh
1577  1621  1617  1     98.28    KANGLE ; Oh-Cah-Oh
1577  1621  1622  1     98.51    KANGLE ; Oh-Cah-Oh
1617  1621  1622  1     98.50    KANGLE ; Oh-Cah-Oh
1621  1622  1623  1     110.00   125.52   ; Cah-Oh-H
1621  1622  1666  1     98.32    KANGLE ; Cah-Oh-Cah
1621  1622  1671  1     98.32    KANGLE ; Cah-Oh-Cah
1623  1622  1666  1     110.00   125.52   ; H-Oh-Cah
1623  1622  1671  1     110.00   125.52   ; H-Oh-Cah
1666  1622  1671  1     98.45    KANGLE ; Cah-Oh-Cah
181   1624  186   1     98.60    KANGLE ; Cah-Oh-Cah
181   1624  231   1     98.32    KANGLE ; Cah-Oh-Cah
181   1624  1625  1     110.00   125.52   ; Cah-Oh-H
186   1624  231   1     98.29    KANGLE ; Cah-Oh-Cah
186   1624  1625  1     110.00   125.52   ; Cah-Oh-H
231   1624  1625  1     110.00   125.52   ; Cah-Oh-H
1219  1626  1264  1     98.02    KANGLE ; Oh-Cah-Oh
1219  1626  1269  1     98.04    KANGLE ; Oh-Cah-Oh
1219  1626  1577  1     81.65    KANGLE ; Oh-Cah-Oh
1219  1626  1582  1     81.62    KANGLE ; Oh-Cah-Oh
1219  1626  1627  1     179.68   KANGLE ; Oh-Cah-Oh
1264  1626  1269  1     98.33    KANGLE ; Oh-Cah-Oh
1264  1626  1577  1     81.50    KANGLE ; Oh-Cah-Oh
1264  1626  1582  1     179.63   KANGLE ; Oh-Cah-Oh
1264  1626  1627  1     81.66    KANGLE ; Oh-Cah-Oh
1269  1626  1577  1     179.62   KANGLE ; Oh-Cah-Oh
1269  1626  1582  1     81.81    KANGLE ; Oh-Cah-Oh
1269  1626  1627  1     82.00    KANGLE ; Oh-Cah-Oh
1577  1626  1582  1     98.36    KANGLE ; Oh-Cah-Oh
1577  1626  1627  1     98.30    KANGLE ; Oh-Cah-Oh
1582  1626  1627  1     98.70    KANGLE ; Oh-Cah-Oh
1626  1627  1628  1     110.00   125.52   ; Cah-Oh-H
1626  1627  1671  1     98.50    KANGLE ; Cah-Oh-Cah
1626  1627  1676  1     98.10    KANGLE ; Cah-Oh-Cah
1628  1627  1671  1     110.00   125.52   ; H-Oh-Cah
1628  1627  1676  1     110.00   125.52   ; H-Oh-Cah
1671  1627  1676  1     98.60    KANGLE ; Cah-Oh-Cah
186   1629  191   1     98.45    KANGLE ; Cah-Oh-Cah
186   1629  236   1     98.32    KANGLE ; Cah-Oh-Cah
186   1629  1630  1     110.00   125.52   ; Cah-Oh-H
191   1629  236   1     98.32    KANGLE ; Cah-Oh-Cah
191   1629  1630  1     110.00   125.52   ; Cah-Oh-H
236   1629  1630  1     110.00   125.52   ; Cah-Oh-H
1224  1631  1269  1     98.04    KANGLE ; Oh-Cah-Oh
1224  1631  1274  1     98.04    KANGLE ; Oh-Cah-Oh
1224  1631  1582  1     81.62    KANGLE ; Oh-Cah-Oh
1224  1631  1587  1     81.62    KANGLE ; Oh-Cah-Oh
1224  1631  1632  1     179.79   KANGLE ; Oh-Cah-Oh
1269  1631  1274  1     98.17    KANGLE ; Oh-Cah-Oh
1269  1631  1582  1     81.81    KANGLE ; Oh-Cah-Oh
1269  1631  1587  1     179.66   KANGLE ; Oh-Cah-Oh
1269  1631  1632  1     81.82    KANGLE ; Oh-Cah-Oh
1274  1631  1582  1     179.66   KANGLE ; Oh-Cah-Oh
1274  1631  1587  1     81.81    KANGLE ; Oh-Cah-Oh
1274  1631  1632  1     81.82    KANGLE ; Oh-Cah-Oh
1582  1631  1587  1     98.20    KANGLE ; Oh-Cah-Oh
1582  1631  1632  1     98.51    KANGLE ; Oh-Cah-Oh
1587  1631  1632  1     98.51    KANGLE ; Oh-Cah-Oh
1631  1632  1633  1     110.00   125.52   ; Cah-Oh-H
1631  1632  1676  1     98.32    KANGLE ; Cah-Oh-Cah
1631  1632  1681  1     98.32    KANGLE ; Cah-Oh-Cah
1633  1632  1676  1     110.00   125.52   ; H-Oh-Cah
1633  1632  1681  1     110.00   125.52   ; H-Oh-Cah
1676  1632  1681  1     98.45    KANGLE ; Cah-Oh-Cah
191   1634  196   1     98.60    KANGLE ; Cah-Oh-Cah
191   1634  241   1     98.32    KANGLE ; Cah-Oh-Cah
191   1634  1635  1     110.00   125.52   ; Cah-Oh-H
196   1634  241   1     98.29    KANGLE ; Cah-Oh-Cah
196   1634  1635  1     110.00   125.52   ; Cah-Oh-H
241   1634  1635  1     110.00   125.52   ; Cah-Oh-H
1229  1636  1274  1     98.02    KANGLE ; Oh-Cah-Oh
1229  1636  1279  1     98.04    KANGLE ; Oh-Cah-Oh
1229  1636  1587  1     81.65    KANGLE ; Oh-Cah-Oh
1229  1636  1592  1     81.62    KANGLE ; Oh-Cah-Oh
1229  1636  1637  1     179.68   KANGLE ; Oh-Cah-Oh
1274  1636  1279  1     98.33    KANGLE ; Oh-Cah-Oh
1274  1636  1587  1     81.50    KANGLE ; Oh-Cah-Oh
1274  1636  1592  1     179.63   KANGLE ; Oh-Cah-Oh
1274  1636  1637  1     81.66    KANGLE ; Oh-Cah-Oh
1279  1636  1587  1     179.62   KANGLE ; Oh-Cah-Oh
1279  1636  1592  1     81.81    KANGLE ; Oh-Cah-Oh
1279  1636  1637  1     82.00    KANGLE ; Oh-Cah-Oh
1587  1636  1592  1     98.36    KANGLE ; Oh-Cah-Oh
1587  1636  1637  1     98.30    KANGLE ; Oh-Cah-Oh
1592  1636  1637  1     98.70    KANGLE ; Oh-Cah-Oh
1636  1637  1638  1     110.00   125.52   ; Cah-Oh-H
1636  1637  1681  1     98.50    KANGLE ; Cah-Oh-Cah
1636  1637  1686  1     98.10    KANGLE ; Cah-Oh-Cah
1638  1637  1681  1     110.00   125.52   ; H-Oh-Cah
1638  1637  1686  1     110.00   125.52   ; H-Oh-Cah
1681  1637  1686  1     98.60    KANGLE ; Cah-Oh-Cah
196   1639  201   1     98.45    KANGLE ; Cah-Oh-Cah
196   1639  246   1     98.32    KANGLE ; Cah-Oh-Cah
196   1639  1640  1     110.00   125.52   ; Cah-Oh-H
201   1639  246   1     98.32    KANGLE ; Cah-Oh-Cah
201   1639  1640  1     110.00   125.52   ; Cah-Oh-H
246   1639  1640  1     110.00   125.52   ; Cah-Oh-H
1234  1641  1279  1     98.04    KANGLE ; Oh-Cah-Oh
1234  1641  1284  1     98.04    KANGLE ; Oh-Cah-Oh
1234  1641  1592  1     81.62    KANGLE ; Oh-Cah-Oh
1234  1641  1597  1     81.62    KANGLE ; Oh-Cah-Oh
1234  1641  1642  1     179.79   KANGLE ; Oh-Cah-Oh
1279  1641  1284  1     98.17    KANGLE ; Oh-Cah-Oh
1279  1641  1592  1     81.81    KANGLE ; Oh-Cah-Oh
1279  1641  1597  1     179.66   KANGLE ; Oh-Cah-Oh
1279  1641  1642  1     81.82    KANGLE ; Oh-Cah-Oh
1284  1641  1592  1     179.66   KANGLE ; Oh-Cah-Oh
1284  1641  1597  1     81.81    KANGLE ; Oh-Cah-Oh
1284  1641  1642  1     81.82    KANGLE ; Oh-Cah-Oh
1592  1641  1597  1     98.20    KANGLE ; Oh-Cah-Oh
1592  1641  1642  1     98.51    KANGLE ; Oh-Cah-Oh
1597  1641  1642  1     98.51    KANGLE ; Oh-Cah-Oh
1641  1642  1643  1     110.00   125.52   ; Cah-Oh-H
1641  1642  1686  1     98.32    KANGLE ; Cah-Oh-Cah
1641  1642  1691  1     98.32    KANGLE ; Cah-Oh-Cah
1643  1642  1686  1     110.00   125.52   ; H-Oh-Cah
1643  1642  1691  1     110.00   125.52   ; H-Oh-Cah
1686  1642  1691  1     98.45    KANGLE ; Cah-Oh-Cah
201   1644  206   1     98.60    KANGLE ; Cah-Oh-Cah
201   1644  251   1     98.32    KANGLE ; Cah-Oh-Cah
201   1644  1645  1     110.00   125.52   ; Cah-Oh-H
206   1644  251   1     98.29    KANGLE ; Cah-Oh-Cah
206   1644  1645  1     110.00   125.52   ; Cah-Oh-H
251   1644  1645  1     110.00   125.52   ; Cah-Oh-H
1239  1646  1284  1     98.02    KANGLE ; Oh-Cah-Oh
1239  1646  1289  1     98.04    KANGLE ; Oh-Cah-Oh
1239  1646  1597  1     81.65    KANGLE ; Oh-Cah-Oh
1239  1646  1602  1     81.62    KANGLE ; Oh-Cah-Oh
1239  1646  1647  1     179.68   KANGLE ; Oh-Cah-Oh
1284  1646  1289  1     98.33    KANGLE ; Oh-Cah-Oh
1284  1646  1597  1     81.50    KANGLE ; Oh-Cah-Oh
1284  1646  1602  1     179.63   KANGLE ; Oh-Cah-Oh
1284  1646  1647  1     81.66    KANGLE ; Oh-Cah-Oh
1289  1646  1597  1     179.62   KANGLE ; Oh-Cah-Oh
1289  1646  1602  1     81.81    KANGLE ; Oh-Cah-Oh
1289  1646  1647  1     82.00    KANGLE ; Oh-Cah-Oh
1597  1646  1602  1     98.36    KANGLE ; Oh-Cah-Oh
1597  1646  1647  1     98.30    KANGLE ; Oh-Cah-Oh
1602  1646  1647  1     98.70    KANGLE ; Oh-Cah-Oh
1646  1647  1648  1     110.00   125.52   ; Cah-Oh-H
1646  1647  1691  1     98.50    KANGLE ; Cah-Oh-Cah
1646  1647  1696  1     98.10    KANGLE ; Cah-Oh-Cah
1648  1647  1691  1     110.00   125.52   ; H-Oh-Cah
1648  1647  1696  1     110.00   125.52   ; H-Oh-Cah
1691  1647  1696  1     98.60    KANGLE ; Cah-Oh-Cah
206   1649  211   1     98.45    KANGLE ; Cah-Oh-Cah
206   1649  256   1     98.32    KANGLE ; Cah-Oh-Cah
206   1649  1650  1     110.00   125.52   ; Cah-Oh-H
211   1649  256   1     98.32    KANGLE ; Cah-Oh-Cah
211   1649  1650  1     110.00   125.52   ; Cah-Oh-H
256   1649  1650  1     110.00   125.52   ; Cah-Oh-H
1244  1651  1289  1     98.04    KANGLE ; Oh-Cah-Oh
1244  1651  1294  1     98.04    KANGLE ; Oh-Cah-Oh
1244  1651  1602  1     81.62    KANGLE ; Oh-Cah-Oh
1244  1651  1607  1     81.62    KANGLE ; Oh-Cah-Oh
1244  1651  1652  1     179.79   KANGLE ; Oh-Cah-Oh
1289  1651  1294  1     98.17    KANGLE ; Oh-Cah-Oh
1289  1651  1602  1     81.81    KANGLE ; Oh-Cah-Oh
1289  1651  1607  1     179.66   KANGLE ; Oh-Cah-Oh
1289  1651  1652  1     81.82    KANGLE ; Oh-Cah-Oh
1294  1651  1602  1     179.66   KANGLE ; Oh-Cah-Oh
1294  1651  1607  1     81.81    KANGLE ; Oh-Cah-Oh
1294  1651  1652  1     81.82    KANGLE ; Oh-Cah-Oh
1602  1651  1607  1     98.20    KANGLE ; Oh-Cah-Oh
1602  1651  1652  1     98.51    KANGLE ; Oh-Cah-Oh
1607  1651  1652  1     98.51    KANGLE ; Oh-Cah-Oh
1651  1652  1653  1     110.00   125.52   ; Cah-Oh-H
1651  1652  1696  1     98.32    KANGLE ; Cah-Oh-Cah
1651  1652  1701  1     98.32    KANGLE ; Cah-Oh-Cah
1653  1652  1696  1     110.00   125.52   ; H-Oh-Cah
1653  1652  1701  1     110.00   125.52   ; H-Oh-Cah
1696  1652  1701  1     98.45    KANGLE ; Cah-Oh-Cah
211   1654  216   1     98.60    KANGLE ; Cah-Oh-Cah
211   1654  261   1     98.32    KANGLE ; Cah-Oh-Cah
211   1654  1655  1     110.00   125.52   ; Cah-Oh-H
216   1654  261   1     98.29    KANGLE ; Cah-Oh-Cah
216   1654  1655  1     110.00   125.52   ; Cah-Oh-H
261   1654  1655  1     110.00   125.52   ; Cah-Oh-H
1249  1656  1294  1     98.02    KANGLE ; Oh-Cah-Oh
1249  1656  1299  1     98.04    KANGLE ; Oh-Cah-Oh
1249  1656  1607  1     81.65    KANGLE ; Oh-Cah-Oh
1249  1656  1612  1     81.62    KANGLE ; Oh-Cah-Oh
1249  1656  1657  1     179.68   KANGLE ; Oh-Cah-Oh
1294  1656  1299  1     98.33    KANGLE ; Oh-Cah-Oh
1294  1656  1607  1     81.50    KANGLE ; Oh-Cah-Oh
1294  1656  1612  1     179.63   KANGLE ; Oh-Cah-Oh
1294  1656  1657  1     81.66    KANGLE ; Oh-Cah-Oh
1299  1656  1607  1     179.62   KANGLE ; Oh-Cah-Oh
1299  1656  1612  1     81.81    KANGLE ; Oh-Cah-Oh
1299  1656  1657  1     82.00    KANGLE ; Oh-Cah-Oh
1607  1656  1612  1     98.36    KANGLE ; Oh-Cah-Oh
1607  1656  1657  1     98.30    KANGLE ; Oh-Cah-Oh
1612  1656  1657  1     98.70    KANGLE ; Oh-Cah-Oh
1656  1657  1658  1     110.00   125.52   ; Cah-Oh-H
1656  1657  1701  1     98.50    KANGLE ; Cah-Oh-Cah
1656  1657  1706  1     98.10    KANGLE ; Cah-Oh-Cah
1658  1657  1701  1     110.00   125.52   ; H-Oh-Cah
1658  1657  1706  1     110.00   125.52   ; H-Oh-Cah
1701  1657  1706  1     98.60    KANGLE ; Cah-Oh-Cah
216   1659  221   1     98.45    KANGLE ; Cah-Oh-Cah
216   1659  266   1     98.32    KANGLE ; Cah-Oh-Cah
216   1659  1660  1     110.00   125.52   ; Cah-Oh-H
221   1659  266   1     98.32    KANGLE ; Cah-Oh-Cah
221   1659  1660  1     110.00   125.52   ; Cah-Oh-H
266   1659  1660  1     110.00   125.52   ; Cah-Oh-H
1254  1661  1299  1     98.04    KANGLE ; Oh-Cah-Oh
1254  1661  1304  1     98.04    KANGLE ; Oh-Cah-Oh
1254  1661  1612  1     81.62    KANGLE ; Oh-Cah-Oh
1254  1661  1617  1     81.62    KANGLE ; Oh-Cah-Oh
1254  1661  1662  1     179.79   KANGLE ; Oh-Cah-Oh
1299  1661  1304  1     98.17    KANGLE ; Oh-Cah-Oh
1299  1661  1612  1     81.81    KANGLE ; Oh-Cah-Oh
1299  1661  1617  1     179.66   KANGLE ; Oh-Cah-Oh
1299  1661  1662  1     81.82    KANGLE ; Oh-Cah-Oh
1304  1661  1612  1     179.66   KANGLE ; Oh-Cah-Oh
1304  1661  1617  1     81.81    KANGLE ; Oh-Cah-Oh
1304  1661  1662  1     81.82    KANGLE ; Oh-Cah-Oh
1612  1661  1617  1     98.20    KANGLE ; Oh-Cah-Oh
1612  1661  1662  1     98.51    KANGLE ; Oh-Cah-Oh
1617  1661  1662  1     98.51    KANGLE ; Oh-Cah-Oh
1661  1662  1663  1     110.00   125.52   ; Cah-Oh-H
1661  1662  1666  1     98.30    KANGLE ; Cah-Oh-Cah
1661  1662  1706  1     98.32    KANGLE ; Cah-Oh-Cah
1663  1662  1666  1     110.00   125.52   ; H-Oh-Cah
1663  1662  1706  1     110.00   125.52   ; H-Oh-Cah
1666  1662  1706  1     98.53    KANGLE ; Cah-Oh-Cah
181   1664  221   1     98.53    KANGLE ; Cah-Oh-Cah
181   1664  226   1     98.21    KANGLE ; Cah-Oh-Cah
181   1664  1665  1     110.00   125.52   ; Cah-Oh-H
221   1664  226   1     98.41    KANGLE ; Cah-Oh-Cah
221   1664  1665  1     110.00   125.52   ; Cah-Oh-H
226   1664  1665  1     110.00   125.52   ; Cah-Oh-H
1304  1666  1309  1     98.33    KANGLE ; Oh-Cah-Oh
1304  1666  1349  1     98.14    KANGLE ; Oh-Cah-Oh
1304  1666  1622  1     81.91    KANGLE ; Oh-Cah-Oh
1304  1666  1662  1     81.74    KANGLE ; Oh-Cah-Oh
1304  1666  1667  1     179.76   KANGLE ; Oh-Cah-Oh
1309  1666  1349  1     98.01    KANGLE ; Oh-Cah-Oh
1309  1666  1622  1     81.81    KANGLE ; Oh-Cah-Oh
1309  1666  1662  1     179.66   KANGLE ; Oh-Cah-Oh
1309  1666  1667  1     81.62    KANGLE ; Oh-Cah-Oh
1349  1666  1622  1     179.82   KANGLE ; Oh-Cah-Oh
1349  1666  1662  1     81.65    KANGLE ; Oh-Cah-Oh
1349  1666  1667  1     81.63    KANGLE ; Oh-Cah-Oh
1622  1666  1662  1     98.53    KANGLE ; Oh-Cah-Oh
1622  1666  1667  1     98.32    KANGLE ; Oh-Cah-Oh
1662  1666  1667  1     98.30    KANGLE ; Oh-Cah-Oh
1666  1667  1668  1     110.00   125.52   ; Cah-Oh-H
1666  1667  1711  1     98.51    KANGLE ; Cah-Oh-Cah
1666  1667  1716  1     98.51    KANGLE ; Cah-Oh-Cah
1668  1667  1711  1     110.00   125.52   ; H-Oh-Cah
1668  1667  1716  1     110.00   125.52   ; H-Oh-Cah
1711  1667  1716  1     98.20    KANGLE ; Cah-Oh-Cah
226   1669  231   1     98.20    KANGLE ; Cah-Oh-Cah
226   1669  276   1     98.51    KANGLE ; Cah-Oh-Cah
226   1669  1670  1     110.00   125.52   ; Cah-Oh-H
231   1669  276   1     98.51    KANGLE ; Cah-Oh-Cah
231   1669  1670  1     110.00   125.52   ; Cah-Oh-H
276   1669  1670  1     110.00   125.52   ; Cah-Oh-H
1264  1671  1309  1     98.24    KANGLE ; Oh-Cah-Oh
1264  1671  1314  1     98.22    KANGLE ; Oh-Cah-Oh
1264  1671  1622  1     81.82    KANGLE ; Oh-Cah-Oh
1264  1671  1627  1     81.82    KANGLE ; Oh-Cah-Oh
1264  1671  1672  1     179.79   KANGLE ; Oh-Cah-Oh
1309  1671  1314  1     98.09    KANGLE ; Oh-Cah-Oh
1309  1671  1622  1     81.81    KANGLE ; Oh-Cah-Oh
1309  1671  1627  1     179.74   KANGLE ; Oh-Cah-Oh
1309  1671  1672  1     81.62    KANGLE ; Oh-Cah-Oh
1314  1671  1622  1     179.90   KANGLE ; Oh-Cah-Oh
1314  1671  1627  1     81.65    KANGLE ; Oh-Cah-Oh
1314  1671  1672  1     81.65    KANGLE ; Oh-Cah-Oh
1622  1671  1627  1     98.45    KANGLE ; Oh-Cah-Oh
1622  1671  1672  1     98.32    KANGLE ; Oh-Cah-Oh
1627  1671  1672  1     98.32    KANGLE ; Oh-Cah-Oh
1671  1672  1673  1     110.00   125.52   ; Cah-Oh-H
1671  1672  1716  1     98.51    KANGLE ; Cah-Oh-Cah
1671  1672  1721  1     98.49    KANGLE ; Cah-Oh-Cah
1673  1672  1716  1     110.00   125.52   ; H-Oh-Cah
1673  1672  1721  1     110.00   125.52   ; H-Oh-Cah
1716  1672  1721  1     98.36    KANGLE ; Cah-Oh-Cah
231   1674  236   1     98.36    KANGLE ; Cah-Oh-Cah
231   1674  281   1     98.49    KANGLE ; Cah-Oh-Cah
231   1674  1675  1     110.00   125.52   ; Cah-Oh-H
236   1674  281   1     98.51    KANGLE ; Cah-Oh-Cah
236   1674  1675  1     110.00   125.52   ; Cah-Oh-H
281   1674  1675  1     110.00   125.52   ; Cah-Oh-H
1269  1676  1314  1     98.24    KANGLE ; Oh-Cah-Oh
1269  1676  1319  1     98.24    KANGLE ; Oh-Cah-Oh
1269  1676  1627  1     81.85    KANGLE ; Oh-Cah-Oh
1269  1676  1632  1     81.82    KANGLE ; Oh-Cah-Oh
1269  1676  1677  1     179.79   KANGLE ; Oh-Cah-Oh
1314  1676  1319  1     97.93    KANGLE ; Oh-Cah-Oh
1314  1676  1627  1     81.65    KANGLE ; Oh-Cah-Oh
1314  1676  1632  1     179.74   KANGLE ; Oh-Cah-Oh
1314  1676  1677  1     81.62    KANGLE ; Oh-Cah-Oh
1319  1676  1627  1     179.58   KANGLE ; Oh-Cah-Oh
1319  1676  1632  1     81.81    KANGLE ; Oh-Cah-Oh
1319  1676  1677  1     81.62    KANGLE ; Oh-Cah-Oh
1627  1676  1632  1     98.60    KANGLE ; Oh-Cah-Oh
1627  1676  1677  1     98.29    KANGLE ; Oh-Cah-Oh
1632  1676  1677  1     98.32    KANGLE ; Oh-Cah-Oh
1676  1677  1678  1     110.00   125.52   ; Cah-Oh-H
1676  1677  1721  1     98.51    KANGLE ; Cah-Oh-Cah
1676  1677  1726  1     98.51    KANGLE ; Cah-Oh-Cah
1678  1677  1721  1     110.00   125.52   ; H-Oh-Cah
1678  1677  1726  1     110.00   125.52   ; H-Oh-Cah
1721  1677  1726  1     98.20    KANGLE ; Cah-Oh-Cah
236   1679  241   1     98.20    KANGLE ; Cah-Oh-Cah
236   1679  286   1     98.51    KANGLE ; Cah-Oh-Cah
236   1679  1680  1     110.00   125.52   ; Cah-Oh-H
241   1679  286   1     98.51    KANGLE ; Cah-Oh-Cah
241   1679  1680  1     110.00   125.52   ; Cah-Oh-H
286   1679  1680  1     110.00   125.52   ; Cah-Oh-H
1274  1681  1319  1     98.24    KANGLE ; Oh-Cah-Oh
1274  1681  1324  1     98.22    KANGLE ; Oh-Cah-Oh
1274  1681  1632  1     81.82    KANGLE ; Oh-Cah-Oh
1274  1681  1637  1     81.82    KANGLE ; Oh-Cah-Oh
1274  1681  1682  1     179.79   KANGLE ; Oh-Cah-Oh
1319  1681  1324  1     98.09    KANGLE ; Oh-Cah-Oh
1319  1681  1632  1     81.81    KANGLE ; Oh-Cah-Oh
1319  1681  1637  1     179.74   KANGLE ; Oh-Cah-Oh
1319  1681  1682  1     81.62    KANGLE ; Oh-Cah-Oh
1324  1681  1632  1     179.90   KANGLE ; Oh-Cah-Oh
1324  1681  1637  1     81.65    KANGLE ; Oh-Cah-Oh
1324  1681  1682  1     81.65    KANGLE ; Oh-Cah-Oh
1632  1681  1637  1     98.45    KANGLE ; Oh-Cah-Oh
1632  1681  1682  1     98.32    KANGLE ; Oh-Cah-Oh
1637  1681  1682  1     98.32    KANGLE ; Oh-Cah-Oh
1681  1682  1683  1     110.00   125.52   ; Cah-Oh-H
1681  1682  1726  1     98.51    KANGLE ; Cah-Oh-Cah
1681  1682  1731  1     98.49    KANGLE ; Cah-Oh-Cah
1683  1682  1726  1     110.00   125.52   ; H-Oh-Cah
1683  1682  1731  1     110.00   125.52   ; H-Oh-Cah
1726  1682  1731  1     98.36    KANGLE ; Cah-Oh-Cah
241   1684  246   1     98.36    KANGLE ; Cah-Oh-Cah
241   1684  291   1     98.49    KANGLE ; Cah-Oh-Cah
241   1684  1685  1     110.00   125.52   ; Cah-Oh-H
246   1684  291   1     98.51    KANGLE ; Cah-Oh-Cah
246   1684  1685  1     110.00   125.52   ; Cah-Oh-H
291   1684  1685  1     110.00   125.52   ; Cah-Oh-H
1279  1686  1324  1     98.24    KANGLE ; Oh-Cah-Oh
1279  1686  1329  1     98.24    KANGLE ; Oh-Cah-Oh
1279  1686  1637  1     81.85    KANGLE ; Oh-Cah-Oh
1279  1686  1642  1     81.82    KANGLE ; Oh-Cah-Oh
1279  1686  1687  1     179.79   KANGLE ; Oh-Cah-Oh
1324  1686  1329  1     97.93    KANGLE ; Oh-Cah-Oh
1324  1686  1637  1     81.65    KANGLE ; Oh-Cah-Oh
1324  1686  1642  1     179.74   KANGLE ; Oh-Cah-Oh
1324  1686  1687  1     81.62    KANGLE ; Oh-Cah-Oh
1329  1686  1637  1     179.58   KANGLE ; Oh-Cah-Oh
1329  1686  1642  1     81.81    KANGLE ; Oh-Cah-Oh
1329  1686  1687  1     81.62    KANGLE ; Oh-Cah-Oh
1637  1686  1642  1     98.60    KANGLE ; Oh-Cah-Oh
1637  1686  1687  1     98.29    KANGLE ; Oh-Cah-Oh
1642  1686  1687  1     98.32    KANGLE ; Oh-Cah-Oh
1686  1687  1688  1     110.00   125.52   ; Cah-Oh-H
1686  1687  1731  1     98.51    KANGLE ; Cah-Oh-Cah
1686  1687  1736  1     98.51    KANGLE ; Cah-Oh-Cah
1688  1687  1731  1     110.00   125.52   ; H-Oh-Cah
1688  1687  1736  1     110.00   125.52   ; H-Oh-Cah
1731  1687  1736  1     98.20    KANGLE ; Cah-Oh-Cah
246   1689  251   1     98.20    KANGLE ; Cah-Oh-Cah
246   1689  296   1     98.51    KANGLE ; Cah-Oh-Cah
246   1689  1690  1     110.00   125.52   ; Cah-Oh-H
251   1689  296   1     98.51    KANGLE ; Cah-Oh-Cah
251   1689  1690  1     110.00   125.52   ; Cah-Oh-H
296   1689  1690  1     110.00   125.52   ; Cah-Oh-H
1284  1691  1329  1     98.24    KANGLE ; Oh-Cah-Oh
1284  1691  1334  1     98.22    KANGLE ; Oh-Cah-Oh
1284  1691  1642  1     81.82    KANGLE ; Oh-Cah-Oh
1284  1691  1647  1     81.82    KANGLE ; Oh-Cah-Oh
1284  1691  1692  1     179.79   KANGLE ; Oh-Cah-Oh
1329  1691  1334  1     98.09    KANGLE ; Oh-Cah-Oh
1329  1691  1642  1     81.81    KANGLE ; Oh-Cah-Oh
1329  1691  1647  1     179.74   KANGLE ; Oh-Cah-Oh
1329  1691  1692  1     81.62    KANGLE ; Oh-Cah-Oh
1334  1691  1642  1     179.90   KANGLE ; Oh-Cah-Oh
1334  1691  1647  1     81.65    KANGLE ; Oh-Cah-Oh
1334  1691  1692  1     81.65    KANGLE ; Oh-Cah-Oh
1642  1691  1647  1     98.45    KANGLE ; Oh-Cah-Oh
1642  1691  1692  1     98.32    KANGLE ; Oh-Cah-Oh
1647  1691  1692  1     98.32    KANGLE ; Oh-Cah-Oh
1691  1692  1693  1     110.00   125.52   ; Cah-Oh-H
1691  1692  1736  1     98.51    KANGLE ; Cah-Oh-Cah
1691  1692  1741  1     98.49    KANGLE ; Cah-Oh-Cah
1693  1692  1736  1     110.00   125.52   ; H-Oh-Cah
1693  1692  1741  1     110.00   125.52   ; H-Oh-Cah
1736  1692  1741  1     98.36    KANGLE ; Cah-Oh-Cah
251   1694  256   1     98.36    KANGLE ; Cah-Oh-Cah
251   1694  301   1     98.49    KANGLE ; Cah-Oh-Cah
251   1694  1695  1     110.00   125.52   ; Cah-Oh-H
256   1694  301   1     98.51    KANGLE ; Cah-Oh-Cah
256   1694  1695  1     110.00   125.52   ; Cah-Oh-H
301   1694  1695  1     110.00   125.52   ; Cah-Oh-H
1289  1696  1334  1     98.24    KANGLE ; Oh-Cah-Oh
1289  1696  1339  1     98.24    KANGLE ; Oh-Cah-Oh
1289  1696  1647  1     81.85    KANGLE ; Oh-Cah-Oh
1289  1696  1652  1     81.82    KANGLE ; Oh-Cah-Oh
1289  1696  1697  1     179.79   KANGLE ; Oh-Cah-Oh
1334  1696  1339  1     97.93    KANGLE ; Oh-Cah-Oh
1334  1696  1647  1     81.65    KANGLE ; Oh-Cah-Oh
1334  1696  1652  1     179.74   KANGLE ; Oh-Cah-Oh
1334  1696  1697  1     81.62    KANGLE ; Oh-Cah-Oh
1339  1696  1647  1     179.58   KANGLE ; Oh-Cah-Oh
1339  1696  1652  1     81.81    KANGLE ; Oh-Cah-Oh
1339  1696  1697  1     81.62    KANGLE ; Oh-Cah-Oh
1647  1696  1652  1     98.60    KANGLE ; Oh-Cah-Oh
1647  1696  1697  1     98.29    KANGLE ; Oh-Cah-Oh
1652  1696  1697  1     98.32    KANGLE ; Oh-Cah-Oh
1696  1697  1698  1     110.00   125.52   ; Cah-Oh-H
1696  1697  1741  1     98.51    KANGLE ; Cah-Oh-Cah
1696  1697  1746  1     98.51    KANGLE ; Cah-Oh-Cah
1698  1697  1741  1     110.00   125.52   ; H-Oh-Cah
1698  1697  1746  1     110.00   125.52   ; H-Oh-Cah
1741  1697  1746  1     98.20    KANGLE ; Cah-Oh-Cah
256   1699  261   1     98.20    KANGLE ; Cah-Oh-Cah
256   1699  306   1     98.51    KANGLE ; Cah-Oh-Cah
256   1699  1700  1     110.00   125.52   ; Cah-Oh-H
261   1699  306   1     98.51    KANGLE ; Cah-Oh-Cah
261   1699  1700  1     110.00   125.52   ; Cah-Oh-H
306   1699  1700  1     110.00   125.52   ; Cah-Oh-H
1294  1701  1339  1     98.24    KANGLE ; Oh-Cah-Oh
1294  1701  1344  1     98.22    KANGLE ; Oh-Cah-Oh
1294  1701  1652  1     81.82    KANGLE ; Oh-Cah-Oh
1294  1701  1657  1     81.82    KANGLE ; Oh-Cah-Oh
1294  1701  1702  1     179.79   KANGLE ; Oh-Cah-Oh
1339  1701  1344  1     98.09    KANGLE ; Oh-Cah-Oh
1339  1701  1652  1     81.81    KANGLE ; Oh-Cah-Oh
1339  1701  1657  1     179.74   KANGLE ; Oh-Cah-Oh
1339  1701  1702  1     81.62    KANGLE ; Oh-Cah-Oh
1344  1701  1652  1     179.90   KANGLE ; Oh-Cah-Oh
1344  1701  1657  1     81.65    KANGLE ; Oh-Cah-Oh
1344  1701  1702  1     81.65    KANGLE ; Oh-Cah-Oh
1652  1701  1657  1     98.45    KANGLE ; Oh-Cah-Oh
1652  1701  1702  1     98.32    KANGLE ; Oh-Cah-Oh
1657  1701  1702  1     98.32    KANGLE ; Oh-Cah-Oh
1701  1702  1703  1     110.00   125.52   ; Cah-Oh-H
1701  1702  1746  1     98.51    KANGLE ; Cah-Oh-Cah
1701  1702  1751  1     98.49    KANGLE ; Cah-Oh-Cah
1703  1702  1746  1     110.00   125.52   ; H-Oh-Cah
1703  1702  1751  1     110.00   125.52   ; H-Oh-Cah
1746  1702  1751  1     98.36    KANGLE ; Cah-Oh-Cah
261   1704  266   1     98.36    KANGLE ; Cah-Oh-Cah
261   1704  311   1     98.49    KANGLE ; Cah-Oh-Cah
261   1704  1705  1     110.00   125.52   ; Cah-Oh-H
266   1704  311   1     98.51    KANGLE ; Cah-Oh-Cah
266   1704  1705  1     110.00   125.52   ; Cah-Oh-H
311   1704  1705  1     110.00   125.52   ; Cah-Oh-H
1299  1706  1344  1     98.24    KANGLE ; Oh-Cah-Oh
1299  1706  1349  1     98.24    KANGLE ; Oh-Cah-Oh
1299  1706  1657  1     81.85    KANGLE ; Oh-Cah-Oh
1299  1706  1662  1     81.82    KANGLE ; Oh-Cah-Oh
1299  1706  1707  1     179.79   KANGLE ; Oh-Cah-Oh
1344  1706  1349  1     97.93    KANGLE ; Oh-Cah-Oh
1344  1706  1657  1     81.65    KANGLE ; Oh-Cah-Oh
1344  1706  1662  1     179.74   KANGLE ; Oh-Cah-Oh
1344  1706  1707  1     81.62    KANGLE ; Oh-Cah-Oh
1349  1706  1657  1     179.58   KANGLE ; Oh-Cah-Oh
1349  1706  1662  1     81.81    KANGLE ; Oh-Cah-Oh
1349  1706  1707  1     81.62    KANGLE ; Oh-Cah-Oh
1657  1706  1662  1     98.60    KANGLE ; Oh-Cah-Oh
1657  1706  1707  1     98.29    KANGLE ; Oh-Cah-Oh
1662  1706  1707  1     98.32    KANGLE ; Oh-Cah-Oh
1706  1707  1708  1     110.00   125.52   ; Cah-Oh-H
1706  1707  1711  1     98.50    KANGLE ; Cah-Oh-Cah
1706  1707  1751  1     98.51    KANGLE ; Cah-Oh-Cah
1708  1707  1711  1     110.00   125.52   ; H-Oh-Cah
1708  1707  1751  1     110.00   125.52   ; H-Oh-Cah
1711  1707  1751  1     98.28    KANGLE ; Cah-Oh-Cah
226   1709  266   1     98.28    KANGLE ; Cah-Oh-Cah
226   1709  271   1     98.41    KANGLE ; Cah-Oh-Cah
226   1709  1710  1     110.00   125.52   ; Cah-Oh-H
266   1709  271   1     98.61    KANGLE ; Cah-Oh-Cah
266   1709  1710  1     110.00   125.52   ; Cah-Oh-H
271   1709  1710  1     110.00   125.52   ; Cah-Oh-H
1349  1711  1354  1     98.14    KANGLE ; Oh-Cah-Oh
1349  1711  1394  1     97.94    KANGLE ; Oh-Cah-Oh
1349  1711  1667  1     81.71    KANGLE ; Oh-Cah-Oh
1349  1711  1707  1     81.54    KANGLE ; Oh-Cah-Oh
1349  1711  1712  1     179.58   KANGLE ; Oh-Cah-Oh
1354  1711  1394  1     98.25    KANGLE ; Oh-Cah-Oh
1354  1711  1667  1     81.81    KANGLE ; Oh-Cah-Oh
1354  1711  1707  1     179.65   KANGLE ; Oh-Cah-Oh
1354  1711  1712  1     82.00    KANGLE ; Oh-Cah-Oh
1394  1711  1667  1     179.65   KANGLE ; Oh-Cah-Oh
1394  1711  1707  1     81.65    KANGLE ; Oh-Cah-Oh
1394  1711  1712  1     81.65    KANGLE ; Oh-Cah-Oh
1667  1711  1707  1     98.28    KANGLE ; Oh-Cah-Oh
1667  1711  1712  1     98.70    KANGLE ; Oh-Cah-Oh
1707  1711  1712  1     98.32    KANGLE ; Oh-Cah-Oh
1711  1712  1713  1     110.00   125.52   ; Cah-Oh-H
1711  1712  1756  1     98.50    KANGLE ; Cah-Oh-Cah
1711  1712  1761  1     98.10    KANGLE ; Cah-Oh-Cah
1713  1712  1756  1     110.00   125.52   ; H-Oh-Cah
1713  1712  1761  1     110.00   125.52   ; H-Oh-Cah
1756  1712  1761  1     98.60    KANGLE ; Cah-Oh-Cah
271   1714  276   1     98.45    KANGLE ; Cah-Oh-Cah
271   1714  321   1     98.32    KANGLE ; Cah-Oh-Cah
271   1714  1715  1     110.00   125.52   ; Cah-Oh-H
276   1714  321   1     98.32    KANGLE ; Cah-Oh-Cah
276   1714  1715  1     110.00   125.52   ; Cah-Oh-H
321   1714  1715  1     110.00   125.52   ; Cah-Oh-H
1309  1716  1354  1     98.04    KANGLE ; Oh-Cah-Oh
1309  1716  1359  1     98.04    KANGLE ; Oh-Cah-Oh
1309  1716  1667  1     81.62    KANGLE ; Oh-Cah-Oh
1309  1716  1672  1     81.62    KANGLE ; Oh-Cah-Oh
1309  1716  1717  1     179.79   KANGLE ; Oh-Cah-Oh
1354  1716  1359  1     98.17    KANGLE ; Oh-Cah-Oh
1354  1716  1667  1     81.81    KANGLE ; Oh-Cah-Oh
1354  1716  1672  1     179.66   KANGLE ; Oh-Cah-Oh
1354  1716  1717  1     81.82    KANGLE ; Oh-Cah-Oh
1359  1716  1667  1     179.66   KANGLE ; Oh-Cah-Oh
1359  1716  1672  1     81.81    KANGLE ; Oh-Cah-Oh
1359  1716  1717  1     81.82    KANGLE ; Oh-Cah-Oh
1667  1716  1672  1     98.20    KANGLE ; Oh-Cah-Oh
1667  1716  1717  1     98.51    KANGLE ; Oh-Cah-Oh
1672  1716  1717  1     98.51    KANGLE ; Oh-Cah-Oh
1716  1717  1718  1     110.00   125.52   ; Cah-Oh-H
1716  1717  1761  1     98.32    KANGLE ; Cah-Oh-Cah
1716  1717  1766  1     98.32    KANGLE ; Cah-Oh-Cah
1718  1717  1761  1     110.00   125.52   ; H-Oh-Cah
1718  1717  1766  1     110.00   125.52   ; H-Oh-Cah
1761  1717  1766  1     98.45    KANGLE ; Cah-Oh-Cah
276   1719  281   1     98.60    KANGLE ; Cah-Oh-Cah
276   1719  326   1     98.32    KANGLE ; Cah-Oh-Cah
276   1719  1720  1     110.00   125.52   ; Cah-Oh-H
281   1719  326   1     98.29    KANGLE ; Cah-Oh-Cah
281   1719  1720  1     110.00   125.52   ; Cah-Oh-H
326   1719  1720  1     110.00   125.52   ; Cah-Oh-H
1314  1721  1359  1     98.02    KANGLE ; Oh-Cah-Oh
1314  1721  1364  1     98.04    KANGLE ; Oh-Cah-Oh
1314  1721  1672  1     81.65    KANGLE ; Oh-Cah-Oh
1314  1721  1677  1     81.62    KANGLE ; Oh-Cah-Oh
1314  1721  1722  1     179.68   KANGLE ; Oh-Cah-Oh
1359  1721  1364  1     98.33    KANGLE ; Oh-Cah-Oh
1359  1721  1672  1     81.50    KANGLE ; Oh-Cah-Oh
1359  1721  1677  1     179.63   KANGLE ; Oh-Cah-Oh
1359  1721  1722  1     81.66    KANGLE ; Oh-Cah-Oh
1364  1721  1672  1     179.62   KANGLE ; Oh-Cah-Oh
1364  1721  1677  1     81.81    KANGLE ; Oh-Cah-Oh
1364  1721  1722  1     82.00    KANGLE ; Oh-Cah-Oh
1672  1721  1677  1     98.36    KANGLE ; Oh-Cah-Oh
1672  1721  1722  1     98.30    KANGLE ; Oh-Cah-Oh
1677  1721  1722  1     98.70    KANGLE ; Oh-Cah-Oh
1721  1722  1723  1     110.00   125.52   ; Cah-Oh-H
1721  1722  1766  1     98.50    KANGLE ; Cah-Oh-Cah
1721  1722  1771  1     98.10    KANGLE ; Cah-Oh-Cah
1723  1722  1766  1     110.00   125.52   ; H-Oh-Cah
1723  1722  1771  1     110.00   125.52   ; H-Oh-Cah
1766  1722  1771  1     98.60    KANGLE ; Cah-Oh-Cah
281   1724  286   1     98.45    KANGLE ; Cah-Oh-Cah
281   1724  331   1     98.32    KANGLE ; Cah-Oh-Cah
281   1724  1725  1     110.00   125.52   ; Cah-Oh-H
286   1724  331   1     98.32    KANGLE ; Cah-Oh-Cah
286   1724  1725  1     110.00   125.52   ; Cah-Oh-H
331   1724  1725  1     110.00   125.52   ; Cah-Oh-H
1319  1726  1364  1     98.04    KANGLE ; Oh-Cah-Oh
1319  1726  1369  1     98.04    KANGLE ; Oh-Cah-Oh
1319  1726  1677  1     81.62    KANGLE ; Oh-Cah-Oh
1319  1726  1682  1     81.62    KANGLE ; Oh-Cah-Oh
1319  1726  1727  1     179.79   KANGLE ; Oh-Cah-Oh
1364  1726  1369  1     98.17    KANGLE ; Oh-Cah-Oh
1364  1726  1677  1     81.81    KANGLE ; Oh-Cah-Oh
1364  1726  1682  1     179.66   KANGLE ; Oh-Cah-Oh
1364  1726  1727  1     81.82    KANGLE ; Oh-Cah-Oh
1369  1726  1677  1     179.66   KANGLE ; Oh-Cah-Oh
1369  1726  1682  1     81.81    KANGLE ; Oh-Cah-Oh
1369  1726  1727  1     81.82    KANGLE ; Oh-Cah-Oh
1677  1726  1682  1     98.20    KANGLE ; Oh-Cah-Oh
1677  1726  1727  1     98.51    KANGLE ; Oh-Cah-Oh
1682  1726  1727  1     98.51    KANGLE ; Oh-Cah-Oh
1726  1727  1728  1     110.00   125.52   ; Cah-Oh-H
1726  1727  1771  1     98.32    KANGLE ; Cah-Oh-Cah
1726  1727  1776  1     98.32    KANGLE ; Cah-Oh-Cah
1728  1727  1771  1     110.00   125.52   ; H-Oh-Cah
1728  1727  1776  1     110.00   125.52   ; H-Oh-Cah
1771  1727  1776  1     98.45    KANGLE ; Cah-Oh-Cah
286   1729  291   1     98.60    KANGLE ; Cah-Oh-Cah
286   1729  336   1     98.32    KANGLE ; Cah-Oh-Cah
286   1729  1730  1     110.00   125.52   ; Cah-Oh-H
291   1729  336   1     98.29    KANGLE ; Cah-Oh-Cah
291   1729  1730  1     110.00   125.52   ; Cah-Oh-H
336   1729  1730  1     110.00   125.52   ; Cah-Oh-H
1324  1731  1369  1     98.02    KANGLE ; Oh-Cah-Oh
1324  1731  1374  1     98.04    KANGLE ; Oh-Cah-Oh
1324  1731  1682  1     81.65    KANGLE ; Oh-Cah-Oh
1324  1731  1687  1     81.62    KANGLE ; Oh-Cah-Oh
1324  1731  1732  1     179.68   KANGLE ; Oh-Cah-Oh
1369  1731  1374  1     98.33    KANGLE ; Oh-Cah-Oh
1369  1731  1682  1     81.50    KANGLE ; Oh-Cah-Oh
1369  1731  1687  1     179.63   KANGLE ; Oh-Cah-Oh
1369  1731  1732  1     81.66    KANGLE ; Oh-Cah-Oh
1374  1731  1682  1     179.62   KANGLE ; Oh-Cah-Oh
1374  1731  1687  1     81.81    KANGLE ; Oh-Cah-Oh
1374  1731  1732  1     82.00    KANGLE ; Oh-Cah-Oh
1682  1731  1687  1     98.36    KANGLE ; Oh-Cah-Oh
1682  1731  1732  1     98.30    KANGLE ; Oh-Cah-Oh
1687  1731  1732  1     98.70    KANGLE ; Oh-Cah-Oh
1731  1732  1733  1     110.00   125.52   ; Cah-Oh-H
1731  1732  1776  1     98.50    KANGLE ; Cah-Oh-Cah
1731  1732  1781  1     98.10    KANGLE ; Cah-Oh-Cah
1733  1732  1776  1     110.00   125.52   ; H-Oh-Cah
1733  1732  1781  1     110.00   125.52   ; H-Oh-Cah
1776  1732  1781  1     98.60    KANGLE ; Cah-Oh-Cah
291   1734  296   1     98.45    KANGLE ; Cah-Oh-Cah
291   1734  341   1     98.32    KANGLE ; Cah-Oh-Cah
291   1734  1735  1     110.00   125.52   ; Cah-Oh-H
296   1734  341   1     98.32    KANGLE ; Cah-Oh-Cah
296   1734  1735  1     110.00   125.52   ; Cah-Oh-H
341   1734  1735  1     110.00   125.52   ; Cah-Oh-H
1329  1736  1374  1     98.04    KANGLE ; Oh-Cah-Oh
1329  1736  1379  1     98.04    KANGLE ; Oh-Cah-Oh
1329  1736  1687  1     81.62    KANGLE ; Oh-Cah-Oh
1329  1736  1692  1     81.62    KANGLE ; Oh-Cah-Oh
1329  1736  1737  1     179.79   KANGLE ; Oh-Cah-Oh
1374  1736  1379  1     98.17    KANGLE ; Oh-Cah-Oh
1374  1736  1687  1     81.81    KANGLE ; Oh-Cah-Oh
1374  1736  1692  1     179.66   KANGLE ; Oh-Cah-Oh
1374  1736  1737  1     81.82    KANGLE ; Oh-Cah-Oh
1379  1736  1687  1     179.66   KANGLE ; Oh-Cah-Oh
1379  1736  1692  1     81.81    KANGLE ; Oh-Cah-Oh
1379  1736  1737  1     81.82    KANGLE ; Oh-Cah-Oh
1687  1736  1692  1     98.20    KANGLE ; Oh-Cah-Oh
1687  1736  1737  1     98.51    KANGLE ; Oh-Cah-Oh
1692  1736  1737  1     98.51    KANGLE ; Oh-Cah-Oh
1736  1737  1738  1     110.00   125.52   ; Cah-Oh-H
1736  1737  1781  1     98.32    KANGLE ; Cah-Oh-Cah
1736  1737  1786  1     98.32    KANGLE ; Cah-Oh-Cah
1738  1737  1781  1     110.00   125.52   ; H-Oh-Cah
1738  1737  1786  1     110.00   125.52   ; H-Oh-Cah
1781  1737  1786  1     98.45    KANGLE ; Cah-Oh-Cah
296   1739  301   1     98.60    KANGLE ; Cah-Oh-Cah
296   1739  346   1     98.32    KANGLE ; Cah-Oh-Cah
296   1739  1740  1     110.00   125.52   ; Cah-Oh-H
301   1739  346   1     98.29    KANGLE ; Cah-Oh-Cah
301   1739  1740  1     110.00   125.52   ; Cah-Oh-H
346   1739  1740  1     110.00   125.52   ; Cah-Oh-H
1334  1741  1379  1     98.02    KANGLE ; Oh-Cah-Oh
1334  1741  1384  1     98.04    KANGLE ; Oh-Cah-Oh
1334  1741  1692  1     81.65    KANGLE ; Oh-Cah-Oh
1334  1741  1697  1     81.62    KANGLE ; Oh-Cah-Oh
1334  1741  1742  1     179.68   KANGLE ; Oh-Cah-Oh
1379  1741  1384  1     98.33    KANGLE ; Oh-Cah-Oh
1379  1741  1692  1     81.50    KANGLE ; Oh-Cah-Oh
1379  1741  1697  1     179.63   KANGLE ; Oh-Cah-Oh
1379  1741  1742  1     81.66    KANGLE ; Oh-Cah-Oh
1384  1741  1692  1     179.62   KANGLE ; Oh-Cah-Oh
1384  1741  1697  1     81.81    KANGLE ; Oh-Cah-Oh
1384  1741  1742  1     82.00    KANGLE ; Oh-Cah-Oh
1692  1741  1697  1     98.36    KANGLE ; Oh-Cah-Oh
1692  1741  1742  1     98.30    KANGLE ; Oh-Cah-Oh
1697  1741  1742  1     98.70    KANGLE ; Oh-Cah-Oh
1741  1742  1743  1     110.00   125.52   ; Cah-Oh-H
1741  1742  1786  1     98.50    KANGLE ; Cah-Oh-Cah
1741  1742  1791  1     98.10    KANGLE ; Cah-Oh-Cah
1743  1742  1786  1     110.00   125.52   ; H-Oh-Cah
1743  1742  1791  1     110.00   125.52   ; H-Oh-Cah
1786  1742  1791  1     98.60    KANGLE ; Cah-Oh-Cah
301   1744  306   1     98.45    KANGLE ; Cah-Oh-Cah
301   1744  351   1     98.32    KANGLE ; Cah-Oh-Cah
301   1744  1745  1     110.00   125.52   ; Cah-Oh-H
306   1744  351   1     98.32    KANGLE ; Cah-Oh-Cah
306   1744  1745  1     110.00   125.52   ; Cah-Oh-H
351   1744  1745  1     110.00   125.52   ; Cah-Oh-H
1339  1746  1384  1     98.04    KANGLE ; Oh-Cah-Oh
1339  1746  1389  1     98.04    KANGLE ; Oh-Cah-Oh
1339  1746  1697  1     81.62    KANGLE ; Oh-Cah-Oh
1339  1746  1702  1     81.62    KANGLE ; Oh-Cah-Oh
1339  1746  1747  1     179.79   KANGLE ; Oh-Cah-Oh
1384  1746  1389  1     98.17    KANGLE ; Oh-Cah-Oh
1384  1746  1697  1     81.81    KANGLE ; Oh-Cah-Oh
1384  1746  1702  1     179.66   KANGLE ; Oh-Cah-Oh
1384  1746  1747  1     81.82    KANGLE ; Oh-Cah-Oh
1389  1746  1697  1     179.66   KANGLE ; Oh-Cah-Oh
1389  1746  1702  1     81.81    KANGLE ; Oh-Cah-Oh
1389  1746  1747  1     81.82    KANGLE ; Oh-Cah-Oh
1697  1746  1702  1     98.20    KANGLE ; Oh-Cah-Oh
1697  1746  1747  1     98.51    KANGLE ; Oh-Cah-Oh
1702  1746  1747  1     98.51    KANGLE ; Oh-Cah-Oh
1746  1747  1748  1     110.00   125.52   ; Cah-Oh-H
1746  1747  1791  1     98.32    KANGLE ; Cah-Oh-Cah
1746  1747  1796  1     98.32    KANGLE ; Cah-Oh-Cah
1748  1747  1791  1     110.00   125.52   ; H-Oh-Cah
1748  1747  1796  1     110.00   125.52   ; H-Oh-Cah
1791  1747  1796  1     98.45    KANGLE ; Cah-Oh-Cah
306   1749  311   1     98.60    KANGLE ; Cah-Oh-Cah
306   1749  356   1     98.32    KANGLE ; Cah-Oh-Cah
306   1749  1750  1     110.00   125.52   ; Cah-Oh-H
311   1749  356   1     98.29    KANGLE ; Cah-Oh-Cah
311   1749  1750  1     110.00   125.52   ; Cah-Oh-H
356   1749  1750  1     110.00   125.52   ; Cah-Oh-H
1344  1751  1389  1     98.02    KANGLE ; Oh-Cah-Oh
1344  1751  1394  1     98.04    KANGLE ; Oh-Cah-Oh
1344  1751  1702  1     81.65    KANGLE ; Oh-Cah-Oh
1344  1751  1707  1     81.62    KANGLE ; Oh-Cah-Oh
1344  1751  1752  1     179.68   KANGLE ; Oh-Cah-Oh
1389  1751  1394  1     98.33    KANGLE ; Oh-Cah-Oh
1389  1751  1702  1     81.50    KANGLE ; Oh-Cah-Oh
1389  1751  1707  1     179.63   KANGLE ; Oh-Cah-Oh
1389  1751  1752  1     81.66    KANGLE ; Oh-Cah-Oh
1394  1751  1702  1     179.62   KANGLE ; Oh-Cah-Oh
1394  1751  1707  1     81.81    KANGLE ; Oh-Cah-Oh
1394  1751  1752  1     82.00    KANGLE ; Oh-Cah-Oh
1702  1751  1707  1     98.36    KANGLE ; Oh-Cah-Oh
1702  1751  1752  1     98.30    KANGLE ; Oh-Cah-Oh
1707  1751  1752  1     98.70    KANGLE ; Oh-Cah-Oh
1751  1752  1753  1     110.00   125.52   ; Cah-Oh-H
1751  1752  1756  1     98.12    KANGLE ; Cah-Oh-Cah
1751  1752  1796  1     98.50    KANGLE ; Cah-Oh-Cah
1753  1752  1756  1     110.00   125.52   ; H-Oh-Cah
1753  1752  1796  1     110.00   125.52   ; H-Oh-Cah
1756  1752  1796  1     98.53    KANGLE ; Cah-Oh-Cah
271   1754  311   1     98.53    KANGLE ; Cah-Oh-Cah
271   1754  316   1     98.40    KANGLE ; Cah-Oh-Cah
271   1754  1755  1     110.00   125.52   ; Cah-Oh-H
311   1754  316   1     98.22    KANGLE ; Cah-Oh-Cah
311   1754  1755  1     110.00   125.52   ; Cah-Oh-H
316   1754  1755  1     110.00   125.52   ; Cah-Oh-H
1394  1756  1399  1     98.12    KANGLE ; Oh-Cah-Oh
1394  1756  1439  1     98.35    KANGLE ; Oh-Cah-Oh
1394  1756  1712  1     81.73    KANGLE ; Oh-Cah-Oh
1394  1756  1752  1     81.93    KANGLE ; Oh-Cah-Oh
1394  1756  1757  1     179.76   KANGLE ; Oh-Cah-Oh
1399  1756  1439  1     98.01    KANGLE ; Oh-Cah-Oh
1399  1756  1712  1     81.65    KANGLE ; Oh-Cah-Oh
1399  1756  1752  1     179.82   KANGLE ; Oh-Cah-Oh
1399  1756  1757  1     81.65    KANGLE ; Oh-Cah-Oh
1439  1756  1712  1     179.66   KANGLE ; Oh-Cah-Oh
1439  1756  1752  1     81.81    KANGLE ; Oh-Cah-Oh
1439  1756  1757  1     81.61    KANGLE ; Oh-Cah-Oh
1712  1756  1752  1     98.53    KANGLE ; Oh-Cah-Oh
1712  1756  1757  1     98.32    KANGLE ; Oh-Cah-Oh
1752  1756  1757  1     98.30    KANGLE ; Oh-Cah-Oh
1441  1757  1446  1     98.42    KANGLE ; Cah-Oh-Cah
1441  1757  1756  1     98.47    KANGLE ; Cah-Oh-Cah
1441  1757  1758  1     110.00   125.52   ; Cah-Oh-H
1446  1757  1756  1     98.44    KANGLE ; Cah-Oh-Cah
1446  1757  1758  1     110.00   125.52   ; Cah-Oh-H
1756  1757  1758  1     110.00   125.52   ; Cah-Oh-H
6     1759  316   1     98.28    KANGLE ; Cah-Oh-Cah
6     1759  321   1     98.68    KANGLE ; Cah-Oh-Cah
6     1759  1760  1     110.00   125.52   ; Cah-Oh-H
316   1759  321   1     98.36    KANGLE ; Cah-Oh-Cah
316   1759  1760  1     110.00   125.52   ; Cah-Oh-H
321   1759  1760  1     110.00   125.52   ; Cah-Oh-H
1354  1761  1399  1     98.24    KANGLE ; Oh-Cah-Oh
1354  1761  1404  1     98.24    KANGLE ; Oh-Cah-Oh
1354  1761  1712  1     81.85    KANGLE ; Oh-Cah-Oh
1354  1761  1717  1     81.82    KANGLE ; Oh-Cah-Oh
1354  1761  1762  1     179.79   KANGLE ; Oh-Cah-Oh
1399  1761  1404  1     97.93    KANGLE ; Oh-Cah-Oh
1399  1761  1712  1     81.65    KANGLE ; Oh-Cah-Oh
1399  1761  1717  1     179.74   KANGLE ; Oh-Cah-Oh
1399  1761  1762  1     81.62    KANGLE ; Oh-Cah-Oh
1404  1761  1712  1     179.58   KANGLE ; Oh-Cah-Oh
1404  1761  1717  1     81.81    KANGLE ; Oh-Cah-Oh
1404  1761  1762  1     81.62    KANGLE ; Oh-Cah-Oh
1712  1761  1717  1     98.60    KANGLE ; Oh-Cah-Oh
1712  1761  1762  1     98.29    KANGLE ; Oh-Cah-Oh
1717  1761  1762  1     98.32    KANGLE ; Oh-Cah-Oh
1446  1762  1451  1     98.26    KANGLE ; Cah-Oh-Cah
1446  1762  1761  1     98.47    KANGLE ; Cah-Oh-Cah
1446  1762  1763  1     110.00   125.52   ; Cah-Oh-H
1451  1762  1761  1     98.47    KANGLE ; Cah-Oh-Cah
1451  1762  1763  1     110.00   125.52   ; Cah-Oh-H
1761  1762  1763  1     110.00   125.52   ; Cah-Oh-H
11    1764  321   1     98.50    KANGLE ; Cah-Oh-Cah
11    1764  326   1     98.50    KANGLE ; Cah-Oh-Cah
11    1764  1765  1     110.00   125.52   ; Cah-Oh-H
321   1764  326   1     98.20    KANGLE ; Cah-Oh-Cah
321   1764  1765  1     110.00   125.52   ; Cah-Oh-H
326   1764  1765  1     110.00   125.52   ; Cah-Oh-H
1359  1766  1404  1     98.24    KANGLE ; Oh-Cah-Oh
1359  1766  1409  1     98.22    KANGLE ; Oh-Cah-Oh
1359  1766  1717  1     81.82    KANGLE ; Oh-Cah-Oh
1359  1766  1722  1     81.82    KANGLE ; Oh-Cah-Oh
1359  1766  1767  1     179.79   KANGLE ; Oh-Cah-Oh
1404  1766  1409  1     98.09    KANGLE ; Oh-Cah-Oh
1404  1766  1717  1     81.81    KANGLE ; Oh-Cah-Oh
1404  1766  1722  1     179.74   KANGLE ; Oh-Cah-Oh
1404  1766  1767  1     81.62    KANGLE ; Oh-Cah-Oh
1409  1766  1717  1     179.90   KANGLE ; Oh-Cah-Oh
1409  1766  1722  1     81.65    KANGLE ; Oh-Cah-Oh
1409  1766  1767  1     81.65    KANGLE ; Oh-Cah-Oh
1717  1766  1722  1     98.45    KANGLE ; Oh-Cah-Oh
1717  1766  1767  1     98.32    KANGLE ; Oh-Cah-Oh
1722  1766  1767  1     98.32    KANGLE ; Oh-Cah-Oh
1451  1767  1456  1     98.42    KANGLE ; Cah-Oh-Cah
1451  1767  1766  1     98.47    KANGLE ; Cah-Oh-Cah
1451  1767  1768  1     110.00   125.52   ; Cah-Oh-H
1456  1767  1766  1     98.44    KANGLE ; Cah-Oh-Cah
1456  1767  1768  1     110.00   125.52   ; Cah-Oh-H
1766  1767  1768  1     110.00   125.52   ; Cah-Oh-H
16    1769  326   1     98.28    KANGLE ; Cah-Oh-Cah
16    1769  331   1     98.68    KANGLE ; Cah-Oh-Cah
16    1769  1770  1     110.00   125.52   ; Cah-Oh-H
326   1769  331   1     98.36    KANGLE ; Cah-Oh-Cah
326   1769  1770  1     110.00   125.52   ; Cah-Oh-H
331   1769  1770  1     110.00   125.52   ; Cah-Oh-H
1364  1771  1409  1     98.24    KANGLE ; Oh-Cah-Oh
1364  1771  1414  1     98.24    KANGLE ; Oh-Cah-Oh
1364  1771  1722  1     81.85    KANGLE ; Oh-Cah-Oh
1364  1771  1727  1     81.82    KANGLE ; Oh-Cah-Oh
1364  1771  1772  1     179.79   KANGLE ; Oh-Cah-Oh
1409  1771  1414  1     97.93    KANGLE ; Oh-Cah-Oh
1409  1771  1722  1     81.65    KANGLE ; Oh-Cah-Oh
1409  1771  1727  1     179.74   KANGLE ; Oh-Cah-Oh
1409  1771  1772  1     81.62    KANGLE ; Oh-Cah-Oh
1414  1771  1722  1     179.58   KANGLE ; Oh-Cah-Oh
1414  1771  1727  1     81.81    KANGLE ; Oh-Cah-Oh
1414  1771  1772  1     81.62    KANGLE ; Oh-Cah-Oh
1722  1771  1727  1     98.60    KANGLE ; Oh-Cah-Oh
1722  1771  1772  1     98.29    KANGLE ; Oh-Cah-Oh
1727  1771  1772  1     98.32    KANGLE ; Oh-Cah-Oh
1456  1772  1461  1     98.26    KANGLE ; Cah-Oh-Cah
1456  1772  1771  1     98.47    KANGLE ; Cah-Oh-Cah
1456  1772  1773  1     110.00   125.52   ; Cah-Oh-H
1461  1772  1771  1     98.47    KANGLE ; Cah-Oh-Cah
1461  1772  1773  1     110.00   125.52   ; Cah-Oh-H
1771  1772  1773  1     110.00   125.52   ; Cah-Oh-H
21    1774  331   1     98.50    KANGLE ; Cah-Oh-Cah
21    1774  336   1     98.50    KANGLE ; Cah-Oh-Cah
21    1774  1775  1     110.00   125.52   ; Cah-Oh-H
331   1774  336   1     98.20    KANGLE ; Cah-Oh-Cah
331   1774  1775  1     110.00   125.52   ; Cah-Oh-H
336   1774  1775  1     110.00   125.52   ; Cah-Oh-H
1369  1776  1414  1     98.24    KANGLE ; Oh-Cah-Oh
1369  1776  1419  1     98.22    KANGLE ; Oh-Cah-Oh
1369  1776  1727  1     81.82    KANGLE ; Oh-Cah-Oh
1369  1776  1732  1     81.82    KANGLE ; Oh-Cah-Oh
1369  1776  1777  1     179.79   KANGLE ; Oh-Cah-Oh
1414  1776  1419  1     98.09    KANGLE ; Oh-Cah-Oh
1414  1776  1727  1     81.81    KANGLE ; Oh-Cah-Oh
1414  1776  1732  1     179.74   KANGLE ; Oh-Cah-Oh
1414  1776  1777  1     81.62    KANGLE ; Oh-Cah-Oh
1419  1776  1727  1     179.90   KANGLE ; Oh-Cah-Oh
1419  1776  1732  1     81.65    KANGLE ; Oh-Cah-Oh
1419  1776  1777  1     81.65    KANGLE ; Oh-Cah-Oh
1727  1776  1732  1     98.45    KANGLE ; Oh-Cah-Oh
1727  1776  1777  1     98.32    KANGLE ; Oh-Cah-Oh
1732  1776  1777  1     98.32    KANGLE ; Oh-Cah-Oh
1461  1777  1466  1     98.26    KANGLE ; Cah-Oh-Cah
1461  1777  1776  1     98.47    KANGLE ; Cah-Oh-Cah
1461  1777  1778  1     110.00   125.52   ; Cah-Oh-H
1466  1777  1776  1     98.47    KANGLE ; Cah-Oh-Cah
1466  1777  1778  1     110.00   125.52   ; Cah-Oh-H
1776  1777  1778  1     110.00   125.52   ; Cah-Oh-H
26    1779  336   1     98.28    KANGLE ; Cah-Oh-Cah
26    1779  341   1     98.68    KANGLE ; Cah-Oh-Cah
26    1779  1780  1     110.00   125.52   ; Cah-Oh-H
336   1779  341   1     98.36    KANGLE ; Cah-Oh-Cah
336   1779  1780  1     110.00   125.52   ; Cah-Oh-H
341   1779  1780  1     110.00   125.52   ; Cah-Oh-H
1374  1781  1419  1     98.24    KANGLE ; Oh-Cah-Oh
1374  1781  1424  1     98.24    KANGLE ; Oh-Cah-Oh
1374  1781  1732  1     81.85    KANGLE ; Oh-Cah-Oh
1374  1781  1737  1     81.82    KANGLE ; Oh-Cah-Oh
1374  1781  1782  1     179.79   KANGLE ; Oh-Cah-Oh
1419  1781  1424  1     97.93    KANGLE ; Oh-Cah-Oh
1419  1781  1732  1     81.65    KANGLE ; Oh-Cah-Oh
1419  1781  1737  1     179.74   KANGLE ; Oh-Cah-Oh
1419  1781  1782  1     81.62    KANGLE ; Oh-Cah-Oh
1424  1781  1732  1     179.58   KANGLE ; Oh-Cah-Oh
1424  1781  1737  1     81.81    KANGLE ; Oh-Cah-Oh
1424  1781  1782  1     81.62    KANGLE ; Oh-Cah-Oh
1732  1781  1737  1     98.60    KANGLE ; Oh-Cah-Oh
1732  1781  1782  1     98.29    KANGLE ; Oh-Cah-Oh
1737  1781  1782  1     98.32    KANGLE ; Oh-Cah-Oh
1466  1782  1471  1     98.42    KANGLE ; Cah-Oh-Cah
1466  1782  1781  1     98.44    KANGLE ; Cah-Oh-Cah
1466  1782  1783  1     110.00   125.52   ; Cah-Oh-H
1471  1782  1781  1     98.47    KANGLE ; Cah-Oh-Cah
1471  1782  1783  1     110.00   125.52   ; Cah-Oh-H
1781  1782  1783  1     110.00   125.52   ; Cah-Oh-H
31    1784  341   1     98.50    KANGLE ; Cah-Oh-Cah
31    1784  346   1     98.50    KANGLE ; Cah-Oh-Cah
31    1784  1785  1     110.00   125.52   ; Cah-Oh-H
341   1784  346   1     98.20    KANGLE ; Cah-Oh-Cah
341   1784  1785  1     110.00   125.52   ; Cah-Oh-H
346   1784  1785  1     110.00   125.52   ; Cah-Oh-H
1379  1786  1424  1     98.24    KANGLE ; Oh-Cah-Oh
1379  1786  1429  1     98.22    KANGLE ; Oh-Cah-Oh
1379  1786  1737  1     81.82    KANGLE ; Oh-Cah-Oh
1379  1786  1742  1     81.82    KANGLE ; Oh-Cah-Oh
1379  1786  1787  1     179.79   KANGLE ; Oh-Cah-Oh
1424  1786  1429  1     98.09    KANGLE ; Oh-Cah-Oh
1424  1786  1737  1     81.81    KANGLE ; Oh-Cah-Oh
1424  1786  1742  1     179.74   KANGLE ; Oh-Cah-Oh
1424  1786  1787  1     81.62    KANGLE ; Oh-Cah-Oh
1429  1786  1737  1     179.90   KANGLE ; Oh-Cah-Oh
1429  1786  1742  1     81.65    KANGLE ; Oh-Cah-Oh
1429  1786  1787  1     81.65    KANGLE ; Oh-Cah-Oh
1737  1786  1742  1     98.45    KANGLE ; Oh-Cah-Oh
1737  1786  1787  1     98.32    KANGLE ; Oh-Cah-Oh
1742  1786  1787  1     98.32    KANGLE ; Oh-Cah-Oh
1471  1787  1476  1     98.42    KANGLE ; Cah-Oh-Cah
1471  1787  1786  1     98.47    KANGLE ; Cah-Oh-Cah
1471  1787  1788  1     110.00   125.52   ; Cah-Oh-H
1476  1787  1786  1     98.44    KANGLE ; Cah-Oh-Cah
1476  1787  1788  1     110.00   125.52   ; Cah-Oh-H
1786  1787  1788  1     110.00   125.52   ; Cah-Oh-H
36    1789  346   1     98.47    KANGLE ; Cah-Oh-Cah
36    1789  351   1     98.50    KANGLE ; Cah-Oh-Cah
36    1789  1790  1     110.00   125.52   ; Cah-Oh-H
346   1789  351   1     98.36    KANGLE ; Cah-Oh-Cah
346   1789  1790  1     110.00   125.52   ; Cah-Oh-H
351   1789  1790  1     110.00   125.52   ; Cah-Oh-H
1384  1791  1429  1     98.24    KANGLE ; Oh-Cah-Oh
1384  1791  1434  1     98.24    KANGLE ; Oh-Cah-Oh
1384  1791  1742  1     81.85    KANGLE ; Oh-Cah-Oh
1384  1791  1747  1     81.82    KANGLE ; Oh-Cah-Oh
1384  1791  1792  1     179.79   KANGLE ; Oh-Cah-Oh
1429  1791  1434  1     97.93    KANGLE ; Oh-Cah-Oh
1429  1791  1742  1     81.65    KANGLE ; Oh-Cah-Oh
1429  1791  1747  1     179.74   KANGLE ; Oh-Cah-Oh
1429  1791  1792  1     81.62    KANGLE ; Oh-Cah-Oh
1434  1791  1742  1     179.58   KANGLE ; Oh-Cah-Oh
1434  1791  1747  1     81.81    KANGLE ; Oh-Cah-Oh
1434  1791  1792  1     81.62    KANGLE ; Oh-Cah-Oh
1742  1791  1747  1     98.60    KANGLE ; Oh-Cah-Oh
1742  1791  1792  1     98.29    KANGLE ; Oh-Cah-Oh
1747  1791  1792  1     98.32    KANGLE ; Oh-Cah-Oh
1476  1792  1481  1     98.26    KANGLE ; Cah-Oh-Cah
1476  1792  1791  1     98.47    KANGLE ; Cah-Oh-Cah
1476  1792  1793  1     110.00   125.52   ; Cah-Oh-H
1481  1792  1791  1     98.47    KANGLE ; Cah-Oh-Cah
1481  1792  1793  1     110.00   125.52   ; Cah-Oh-H
1791  1792  1793  1     110.00   125.52   ; Cah-Oh-H
41    1794  351   1     98.50    KANGLE ; Cah-Oh-Cah
41    1794  356   1     98.50    KANGLE ; Cah-Oh-Cah
41    1794  1795  1     110.00   125.52   ; Cah-Oh-H
351   1794  356   1     98.20    KANGLE ; Cah-Oh-Cah
351   1794  1795  1     110.00   125.52   ; Cah-Oh-H
356   1794  1795  1     110.00   125.52   ; Cah-Oh-H
1389  1796  1434  1     98.24    KANGLE ; Oh-Cah-Oh
1389  1796  1439  1     98.22    KANGLE ; Oh-Cah-Oh
1389  1796  1747  1     81.82    KANGLE ; Oh-Cah-Oh
1389  1796  1752  1     81.82    KANGLE ; Oh-Cah-Oh
1389  1796  1797  1     179.79   KANGLE ; Oh-Cah-Oh
1434  1796  1439  1     98.09    KANGLE ; Oh-Cah-Oh
1434  1796  1747  1     81.81    KANGLE ; Oh-Cah-Oh
1434  1796  1752  1     179.74   KANGLE ; Oh-Cah-Oh
1434  1796  1797  1     81.62    KANGLE ; Oh-Cah-Oh
1439  1796  1747  1     179.90   KANGLE ; Oh-Cah-Oh
1439  1796  1752  1     81.65    KANGLE ; Oh-Cah-Oh
1439  1796  1797  1     81.65    KANGLE ; Oh-Cah-Oh
1747  1796  1752  1     98.45    KANGLE ; Oh-Cah-Oh
1747  1796  1797  1     98.32    KANGLE ; Oh-Cah-Oh
1752  1796  1797  1     98.32    KANGLE ; Oh-Cah-Oh
1441  1797  1481  1     98.34    KANGLE ; Cah-Oh-Cah
1441  1797  1796  1     98.45    KANGLE ; Cah-Oh-Cah
1441  1797  1798  1     110.00   125.52   ; Cah-Oh-H
1481  1797  1796  1     98.47    KANGLE ; Cah-Oh-Cah
1481  1797  1798  1     110.00   125.52   ; Cah-Oh-H
1796  1797  1798  1     110.00   125.52   ; Cah-Oh-H
1     1799  316   1     98.60    KANGLE ; Cah-Oh-Cah
1     1799  356   1     98.38    KANGLE ; Cah-Oh-Cah
1     1799  1800  1     110.00   125.52   ; Cah-Oh-H
316   1799  356   1     98.28    KANGLE ; Cah-Oh-Cah
316   1799  1800  1     110.00   125.52   ; Cah-Oh-H
356   1799  1800  1     110.00   125.52   ; Cah-Oh-H


#ifdef POSRES_XY_MMT_1  
[ position_restraints ] 
; atom  type      fx      fy      fz
#endif 


#ifdef POSRES_XY_MMT_2  
[ position_restraints ] 
; atom  type      fx      fy      fz
#endif 


#ifdef POSRES_MINFF 
[ position_restraints ] 
; atom  type      fx      fy      fz
     1	     1	  1000	  1000	  1000
     2	     1	  1000	  1000	  1000
     3	     1	  1000	  1000	  1000
     4	     1	  1000	  1000	  1000
     5	     1	  1000	  1000	  1000
     6	     1	  1000	  1000	  1000
     7	     1	  1000	  1000	  1000
     8	     1	  1000	  1000	  1000
     9	     1	  1000	  1000	  1000
    10	     1	  1000	  1000	  1000
    11	     1	  1000	  1000	  1000
    12	     1	  1000	  1000	  1000
    13	     1	  1000	  1000	  1000
    14	     1	  1000	  1000	  1000
    15	     1	  1000	  1000	  1000
    16	     1	  1000	  1000	  1000
    17	     1	  1000	  1000	  1000
    18	     1	  1000	  1000	  1000
    19	     1	  1000	  1000	  1000
    20	     1	  1000	  1000	  1000
    21	     1	  1000	  1000	  1000
    22	     1	  1000	  1000	  1000
    23	     1	  1000	  1000	  1000
    24	     1	  1000	  1000	  1000
    25	     1	  1000	  1000	  1000
    26	     1	  1000	  1000	  1000
    27	     1	  1000	  1000	  1000
    28	     1	  1000	  1000	  1000
    29	     1	  1000	  1000	  1000
    30	     1	  1000	  1000	  1000
    31	     1	  1000	  1000	  1000
    32	     1	  1000	  1000	  1000
    33	     1	  1000	  1000	  1000
    34	     1	  1000	  1000	  1000
    35	     1	  1000	  1000	  1000
    36	     1	  1000	  1000	  1000
    37	     1	  1000	  1000	  1000
    38	     1	  1000	  1000	  1000
    39	     1	  1000	  1000	  1000
    40	     1	  1000	  1000	  1000
    41	     1	  1000	  1000	  1000
    42	     1	  1000	  1000	  1000
    43	     1	  1000	  1000	  1000
    44	     1	  1000	  1000	  1000
    45	     1	  1000	  1000	  1000
    46	     1	  1000	  1000	  1000
    47	     1	  1000	  1000	  1000
    48	     1	  1000	  1000	  1000
    49	     1	  1000	  1000	  1000
    50	     1	  1000	  1000	  1000
    51	     1	  1000	  1000	  1000
    52	     1	  1000	  1000	  1000
    53	     1	  1000	  1000	  1000
    54	     1	  1000	  1000	  1000
    55	     1	  1000	  1000	  1000
    56	     1	  1000	  1000	  1000
    57	     1	  1000	  1000	  1000
    58	     1	  1000	  1000	  1000
    59	     1	  1000	  1000	  1000
    60	     1	  1000	  1000	  1000
    61	     1	  1000	  1000	  1000
    62	     1	  1000	  1000	  1000
    63	     1	  1000	  1000	  1000
    64	     1	  1000	  1000	  1000
    65	     1	  1000	  1000	  1000
    66	     1	  1000	  1000	  1000
    67	     1	  1000	  1000	  1000
    68	     1	  1000	  1000	  1000
    69	     1	  1000	  1000	  1000
    70	     1	  1000	  1000	  1000
    71	     1	  1000	  1000	  1000
    72	     1	  1000	  1000	  1000
    73	     1	  1000	  1000	  1000
    74	     1	  1000	  1000	  1000
    75	     1	  1000	  1000	  1000
    76	     1	  1000	  1000	  1000
    77	     1	  1000	  1000	  1000
    78	     1	  1000	  1000	  1000
    79	     1	  1000	  1000	  1000
    80	     1	  1000	  1000	  1000
    81	     1	  1000	  1000	  1000
    82	     1	  1000	  1000	  1000
    83	     1	  1000	  1000	  1000
    84	     1	  1000	  1000	  1000
    85	     1	  1000	  1000	  1000
    86	     1	  1000	  1000	  1000
    87	     1	  1000	  1000	  1000
    88	     1	  1000	  1000	  1000
    89	     1	  1000	  1000	  1000
    90	     1	  1000	  1000	  1000
    91	     1	  1000	  1000	  1000
    92	     1	  1000	  1000	  1000
    93	     1	  1000	  1000	  1000
    94	     1	  1000	  1000	  1000
    95	     1	  1000	  1000	  1000
    96	     1	  1000	  1000	  1000
    97	     1	  1000	  1000	  1000
    98	     1	  1000	  1000	  1000
    99	     1	  1000	  1000	  1000
   100	     1	  1000	  1000	  1000
   101	     1	  1000	  1000	  1000
   102	     1	  1000	  1000	  1000
   103	     1	  1000	  1000	  1000
   104	     1	  1000	  1000	  1000
   105	     1	  1000	  1000	  1000
   106	     1	  1000	  1000	  1000
   107	     1	  1000	  1000	  1000
   108	     1	  1000	  1000	  1000
   109	     1	  1000	  1000	  1000
   110	     1	  1000	  1000	  1000
   111	     1	  1000	  1000	  1000
   112	     1	  1000	  1000	  1000
   113	     1	  1000	  1000	  1000
   114	     1	  1000	  1000	  1000
   115	     1	  1000	  1000	  1000
   116	     1	  1000	  1000	  1000
   117	     1	  1000	  1000	  1000
   118	     1	  1000	  1000	  1000
   119	     1	  1000	  1000	  1000
   120	     1	  1000	  1000	  1000
   121	     1	  1000	  1000	  1000
   122	     1	  1000	  1000	  1000
   123	     1	  1000	  1000	  1000
   124	     1	  1000	  1000	  1000
   125	     1	  1000	  1000	  1000
   126	     1	  1000	  1000	  1000
   127	     1	  1000	  1000	  1000
   128	     1	  1000	  1000	  1000
   129	     1	  1000	  1000	  1000
   130	     1	  1000	  1000	  1000
   131	     1	  1000	  1000	  1000
   132	     1	  1000	  1000	  1000
   133	     1	  1000	  1000	  1000
   134	     1	  1000	  1000	  1000
   135	     1	  1000	  1000	  1000
   136	     1	  1000	  1000	  1000
   137	     1	  1000	  1000	  1000
   138	     1	  1000	  1000	  1000
   139	     1	  1000	  1000	  1000
   140	     1	  1000	  1000	  1000
   141	     1	  1000	  1000	  1000
   142	     1	  1000	  1000	  1000
   143	     1	  1000	  1000	  1000
   144	     1	  1000	  1000	  1000
   145	     1	  1000	  1000	  1000
   146	     1	  1000	  1000	  1000
   147	     1	  1000	  1000	  1000
   148	     1	  1000	  1000	  1000
   149	     1	  1000	  1000	  1000
   150	     1	  1000	  1000	  1000
   151	     1	  1000	  1000	  1000
   152	     1	  1000	  1000	  1000
   153	     1	  1000	  1000	  1000
   154	     1	  1000	  1000	  1000
   155	     1	  1000	  1000	  1000
   156	     1	  1000	  1000	  1000
   157	     1	  1000	  1000	  1000
   158	     1	  1000	  1000	  1000
   159	     1	  1000	  1000	  1000
   160	     1	  1000	  1000	  1000
   161	     1	  1000	  1000	  1000
   162	     1	  1000	  1000	  1000
   163	     1	  1000	  1000	  1000
   164	     1	  1000	  1000	  1000
   165	     1	  1000	  1000	  1000
   166	     1	  1000	  1000	  1000
   167	     1	  1000	  1000	  1000
   168	     1	  1000	  1000	  1000
   169	     1	  1000	  1000	  1000
   170	     1	  1000	  1000	  1000
   171	     1	  1000	  1000	  1000
   172	     1	  1000	  1000	  1000
   173	     1	  1000	  1000	  1000
   174	     1	  1000	  1000	  1000
   175	     1	  1000	  1000	  1000
   176	     1	  1000	  1000	  1000
   177	     1	  1000	  1000	  1000
   178	     1	  1000	  1000	  1000
   179	     1	  1000	  1000	  1000
   180	     1	  1000	  1000	  1000
   181	     1	  1000	  1000	  1000
   182	     1	  1000	  1000	  1000
   183	     1	  1000	  1000	  1000
   184	     1	  1000	  1000	  1000
   185	     1	  1000	  1000	  1000
   186	     1	  1000	  1000	  1000
   187	     1	  1000	  1000	  1000
   188	     1	  1000	  1000	  1000
   189	     1	  1000	  1000	  1000
   190	     1	  1000	  1000	  1000
   191	     1	  1000	  1000	  1000
   192	     1	  1000	  1000	  1000
   193	     1	  1000	  1000	  1000
   194	     1	  1000	  1000	  1000
   195	     1	  1000	  1000	  1000
   196	     1	  1000	  1000	  1000
   197	     1	  1000	  1000	  1000
   198	     1	  1000	  1000	  1000
   199	     1	  1000	  1000	  1000
   200	     1	  1000	  1000	  1000
   201	     1	  1000	  1000	  1000
   202	     1	  1000	  1000	  1000
   203	     1	  1000	  1000	  1000
   204	     1	  1000	  1000	  1000
   205	     1	  1000	  1000	  1000
   206	     1	  1000	  1000	  1000
   207	     1	  1000	  1000	  1000
   208	     1	  1000	  1000	  1000
   209	     1	  1000	  1000	  1000
   210	     1	  1000	  1000	  1000
   211	     1	  1000	  1000	  1000
   212	     1	  1000	  1000	  1000
   213	     1	  1000	  1000	  1000
   214	     1	  1000	  1000	  1000
   215	     1	  1000	  1000	  1000
   216	     1	  1000	  1000	  1000
   217	     1	  1000	  1000	  1000
   218	     1	  1000	  1000	  1000
   219	     1	  1000	  1000	  1000
   220	     1	  1000	  1000	  1000
   221	     1	  1000	  1000	  1000
   222	     1	  1000	  1000	  1000
   223	     1	  1000	  1000	  1000
   224	     1	  1000	  1000	  1000
   225	     1	  1000	  1000	  1000
   226	     1	  1000	  1000	  1000
   227	     1	  1000	  1000	  1000
   228	     1	  1000	  1000	  1000
   229	     1	  1000	  1000	  1000
   230	     1	  1000	  1000	  1000
   231	     1	  1000	  1000	  1000
   232	     1	  1000	  1000	  1000
   233	     1	  1000	  1000	  1000
   234	     1	  1000	  1000	  1000
   235	     1	  1000	  1000	  1000
   236	     1	  1000	  1000	  1000
   237	     1	  1000	  1000	  1000
   238	     1	  1000	  1000	  1000
   239	     1	  1000	  1000	  1000
   240	     1	  1000	  1000	  1000
   241	     1	  1000	  1000	  1000
   242	     1	  1000	  1000	  1000
   243	     1	  1000	  1000	  1000
   244	     1	  1000	  1000	  1000
   245	     1	  1000	  1000	  1000
   246	     1	  1000	  1000	  1000
   247	     1	  1000	  1000	  1000
   248	     1	  1000	  1000	  1000
   249	     1	  1000	  1000	  1000
   250	     1	  1000	  1000	  1000
   251	     1	  1000	  1000	  1000
   252	     1	  1000	  1000	  1000
   253	     1	  1000	  1000	  1000
   254	     1	  1000	  1000	  1000
   255	     1	  1000	  1000	  1000
   256	     1	  1000	  1000	  1000
   257	     1	  1000	  1000	  1000
   258	     1	  1000	  1000	  1000
   259	     1	  1000	  1000	  1000
   260	     1	  1000	  1000	  1000
   261	     1	  1000	  1000	  1000
   262	     1	  1000	  1000	  1000
   263	     1	  1000	  1000	  1000
   264	     1	  1000	  1000	  1000
   265	     1	  1000	  1000	  1000
   266	     1	  1000	  1000	  1000
   267	     1	  1000	  1000	  1000
   268	     1	  1000	  1000	  1000
   269	     1	  1000	  1000	  1000
   270	     1	  1000	  1000	  1000
   271	     1	  1000	  1000	  1000
   272	     1	  1000	  1000	  1000
   273	     1	  1000	  1000	  1000
   274	     1	  1000	  1000	  1000
   275	     1	  1000	  1000	  1000
   276	     1	  1000	  1000	  1000
   277	     1	  1000	  1000	  1000
   278	     1	  1000	  1000	  1000
   279	     1	  1000	  1000	  1000
   280	     1	  1000	  1000	  1000
   281	     1	  1000	  1000	  1000
   282	     1	  1000	  1000	  1000
   283	     1	  1000	  1000	  1000
   284	     1	  1000	  1000	  1000
   285	     1	  1000	  1000	  1000
   286	     1	  1000	  1000	  1000
   287	     1	  1000	  1000	  1000
   288	     1	  1000	  1000	  1000
   289	     1	  1000	  1000	  1000
   290	     1	  1000	  1000	  1000
   291	     1	  1000	  1000	  1000
   292	     1	  1000	  1000	  1000
   293	     1	  1000	  1000	  1000
   294	     1	  1000	  1000	  1000
   295	     1	  1000	  1000	  1000
   296	     1	  1000	  1000	  1000
   297	     1	  1000	  1000	  1000
   298	     1	  1000	  1000	  1000
   299	     1	  1000	  1000	  1000
   300	     1	  1000	  1000	  1000
   301	     1	  1000	  1000	  1000
   302	     1	  1000	  1000	  1000
   303	     1	  1000	  1000	  1000
   304	     1	  1000	  1000	  1000
   305	     1	  1000	  1000	  1000
   306	     1	  1000	  1000	  1000
   307	     1	  1000	  1000	  1000
   308	     1	  1000	  1000	  1000
   309	     1	  1000	  1000	  1000
   310	     1	  1000	  1000	  1000
   311	     1	  1000	  1000	  1000
   312	     1	  1000	  1000	  1000
   313	     1	  1000	  1000	  1000
   314	     1	  1000	  1000	  1000
   315	     1	  1000	  1000	  1000
   316	     1	  1000	  1000	  1000
   317	     1	  1000	  1000	  1000
   318	     1	  1000	  1000	  1000
   319	     1	  1000	  1000	  1000
   320	     1	  1000	  1000	  1000
   321	     1	  1000	  1000	  1000
   322	     1	  1000	  1000	  1000
   323	     1	  1000	  1000	  1000
   324	     1	  1000	  1000	  1000
   325	     1	  1000	  1000	  1000
   326	     1	  1000	  1000	  1000
   327	     1	  1000	  1000	  1000
   328	     1	  1000	  1000	  1000
   329	     1	  1000	  1000	  1000
   330	     1	  1000	  1000	  1000
   331	     1	  1000	  1000	  1000
   332	     1	  1000	  1000	  1000
   333	     1	  1000	  1000	  1000
   334	     1	  1000	  1000	  1000
   335	     1	  1000	  1000	  1000
   336	     1	  1000	  1000	  1000
   337	     1	  1000	  1000	  1000
   338	     1	  1000	  1000	  1000
   339	     1	  1000	  1000	  1000
   340	     1	  1000	  1000	  1000
   341	     1	  1000	  1000	  1000
   342	     1	  1000	  1000	  1000
   343	     1	  1000	  1000	  1000
   344	     1	  1000	  1000	  1000
   345	     1	  1000	  1000	  1000
   346	     1	  1000	  1000	  1000
   347	     1	  1000	  1000	  1000
   348	     1	  1000	  1000	  1000
   349	     1	  1000	  1000	  1000
   350	     1	  1000	  1000	  1000
   351	     1	  1000	  1000	  1000
   352	     1	  1000	  1000	  1000
   353	     1	  1000	  1000	  1000
   354	     1	  1000	  1000	  1000
   355	     1	  1000	  1000	  1000
   356	     1	  1000	  1000	  1000
   357	     1	  1000	  1000	  1000
   358	     1	  1000	  1000	  1000
   359	     1	  1000	  1000	  1000
   360	     1	  1000	  1000	  1000
   361	     1	  1000	  1000	  1000
   362	     1	  1000	  1000	  1000
   363	     1	  1000	  1000	  1000
   364	     1	  1000	  1000	  1000
   365	     1	  1000	  1000	  1000
   366	     1	  1000	  1000	  1000
   367	     1	  1000	  1000	  1000
   368	     1	  1000	  1000	  1000
   369	     1	  1000	  1000	  1000
   370	     1	  1000	  1000	  1000
   371	     1	  1000	  1000	  1000
   372	     1	  1000	  1000	  1000
   373	     1	  1000	  1000	  1000
   374	     1	  1000	  1000	  1000
   375	     1	  1000	  1000	  1000
   376	     1	  1000	  1000	  1000
   377	     1	  1000	  1000	  1000
   378	     1	  1000	  1000	  1000
   379	     1	  1000	  1000	  1000
   380	     1	  1000	  1000	  1000
   381	     1	  1000	  1000	  1000
   382	     1	  1000	  1000	  1000
   383	     1	  1000	  1000	  1000
   384	     1	  1000	  1000	  1000
   385	     1	  1000	  1000	  1000
   386	     1	  1000	  1000	  1000
   387	     1	  1000	  1000	  1000
   388	     1	  1000	  1000	  1000
   389	     1	  1000	  1000	  1000
   390	     1	  1000	  1000	  1000
   391	     1	  1000	  1000	  1000
   392	     1	  1000	  1000	  1000
   393	     1	  1000	  1000	  1000
   394	     1	  1000	  1000	  1000
   395	     1	  1000	  1000	  1000
   396	     1	  1000	  1000	  1000
   397	     1	  1000	  1000	  1000
   398	     1	  1000	  1000	  1000
   399	     1	  1000	  1000	  1000
   400	     1	  1000	  1000	  1000
   401	     1	  1000	  1000	  1000
   402	     1	  1000	  1000	  1000
   403	     1	  1000	  1000	  1000
   404	     1	  1000	  1000	  1000
   405	     1	  1000	  1000	  1000
   406	     1	  1000	  1000	  1000
   407	     1	  1000	  1000	  1000
   408	     1	  1000	  1000	  1000
   409	     1	  1000	  1000	  1000
   410	     1	  1000	  1000	  1000
   411	     1	  1000	  1000	  1000
   412	     1	  1000	  1000	  1000
   413	     1	  1000	  1000	  1000
   414	     1	  1000	  1000	  1000
   415	     1	  1000	  1000	  1000
   416	     1	  1000	  1000	  1000
   417	     1	  1000	  1000	  1000
   418	     1	  1000	  1000	  1000
   419	     1	  1000	  1000	  1000
   420	     1	  1000	  1000	  1000
   421	     1	  1000	  1000	  1000
   422	     1	  1000	  1000	  1000
   423	     1	  1000	  1000	  1000
   424	     1	  1000	  1000	  1000
   425	     1	  1000	  1000	  1000
   426	     1	  1000	  1000	  1000
   427	     1	  1000	  1000	  1000
   428	     1	  1000	  1000	  1000
   429	     1	  1000	  1000	  1000
   430	     1	  1000	  1000	  1000
   431	     1	  1000	  1000	  1000
   432	     1	  1000	  1000	  1000
   433	     1	  1000	  1000	  1000
   434	     1	  1000	  1000	  1000
   435	     1	  1000	  1000	  1000
   436	     1	  1000	  1000	  1000
   437	     1	  1000	  1000	  1000
   438	     1	  1000	  1000	  1000
   439	     1	  1000	  1000	  1000
   440	     1	  1000	  1000	  1000
   441	     1	  1000	  1000	  1000
   442	     1	  1000	  1000	  1000
   443	     1	  1000	  1000	  1000
   444	     1	  1000	  1000	  1000
   445	     1	  1000	  1000	  1000
   446	     1	  1000	  1000	  1000
   447	     1	  1000	  1000	  1000
   448	     1	  1000	  1000	  1000
   449	     1	  1000	  1000	  1000
   450	     1	  1000	  1000	  1000
   451	     1	  1000	  1000	  1000
   452	     1	  1000	  1000	  1000
   453	     1	  1000	  1000	  1000
   454	     1	  1000	  1000	  1000
   455	     1	  1000	  1000	  1000
   456	     1	  1000	  1000	  1000
   457	     1	  1000	  1000	  1000
   458	     1	  1000	  1000	  1000
   459	     1	  1000	  1000	  1000
   460	     1	  1000	  1000	  1000
   461	     1	  1000	  1000	  1000
   462	     1	  1000	  1000	  1000
   463	     1	  1000	  1000	  1000
   464	     1	  1000	  1000	  1000
   465	     1	  1000	  1000	  1000
   466	     1	  1000	  1000	  1000
   467	     1	  1000	  1000	  1000
   468	     1	  1000	  1000	  1000
   469	     1	  1000	  1000	  1000
   470	     1	  1000	  1000	  1000
   471	     1	  1000	  1000	  1000
   472	     1	  1000	  1000	  1000
   473	     1	  1000	  1000	  1000
   474	     1	  1000	  1000	  1000
   475	     1	  1000	  1000	  1000
   476	     1	  1000	  1000	  1000
   477	     1	  1000	  1000	  1000
   478	     1	  1000	  1000	  1000
   479	     1	  1000	  1000	  1000
   480	     1	  1000	  1000	  1000
   481	     1	  1000	  1000	  1000
   482	     1	  1000	  1000	  1000
   483	     1	  1000	  1000	  1000
   484	     1	  1000	  1000	  1000
   485	     1	  1000	  1000	  1000
   486	     1	  1000	  1000	  1000
   487	     1	  1000	  1000	  1000
   488	     1	  1000	  1000	  1000
   489	     1	  1000	  1000	  1000
   490	     1	  1000	  1000	  1000
   491	     1	  1000	  1000	  1000
   492	     1	  1000	  1000	  1000
   493	     1	  1000	  1000	  1000
   494	     1	  1000	  1000	  1000
   495	     1	  1000	  1000	  1000
   496	     1	  1000	  1000	  1000
   497	     1	  1000	  1000	  1000
   498	     1	  1000	  1000	  1000
   499	     1	  1000	  1000	  1000
   500	     1	  1000	  1000	  1000
   501	     1	  1000	  1000	  1000
   502	     1	  1000	  1000	  1000
   503	     1	  1000	  1000	  1000
   504	     1	  1000	  1000	  1000
   505	     1	  1000	  1000	  1000
   506	     1	  1000	  1000	  1000
   507	     1	  1000	  1000	  1000
   508	     1	  1000	  1000	  1000
   509	     1	  1000	  1000	  1000
   510	     1	  1000	  1000	  1000
   511	     1	  1000	  1000	  1000
   512	     1	  1000	  1000	  1000
   513	     1	  1000	  1000	  1000
   514	     1	  1000	  1000	  1000
   515	     1	  1000	  1000	  1000
   516	     1	  1000	  1000	  1000
   517	     1	  1000	  1000	  1000
   518	     1	  1000	  1000	  1000
   519	     1	  1000	  1000	  1000
   520	     1	  1000	  1000	  1000
   521	     1	  1000	  1000	  1000
   522	     1	  1000	  1000	  1000
   523	     1	  1000	  1000	  1000
   524	     1	  1000	  1000	  1000
   525	     1	  1000	  1000	  1000
   526	     1	  1000	  1000	  1000
   527	     1	  1000	  1000	  1000
   528	     1	  1000	  1000	  1000
   529	     1	  1000	  1000	  1000
   530	     1	  1000	  1000	  1000
   531	     1	  1000	  1000	  1000
   532	     1	  1000	  1000	  1000
   533	     1	  1000	  1000	  1000
   534	     1	  1000	  1000	  1000
   535	     1	  1000	  1000	  1000
   536	     1	  1000	  1000	  1000
   537	     1	  1000	  1000	  1000
   538	     1	  1000	  1000	  1000
   539	     1	  1000	  1000	  1000
   540	     1	  1000	  1000	  1000
   541	     1	  1000	  1000	  1000
   542	     1	  1000	  1000	  1000
   543	     1	  1000	  1000	  1000
   544	     1	  1000	  1000	  1000
   545	     1	  1000	  1000	  1000
   546	     1	  1000	  1000	  1000
   547	     1	  1000	  1000	  1000
   548	     1	  1000	  1000	  1000
   549	     1	  1000	  1000	  1000
   550	     1	  1000	  1000	  1000
   551	     1	  1000	  1000	  1000
   552	     1	  1000	  1000	  1000
   553	     1	  1000	  1000	  1000
   554	     1	  1000	  1000	  1000
   555	     1	  1000	  1000	  1000
   556	     1	  1000	  1000	  1000
   557	     1	  1000	  1000	  1000
   558	     1	  1000	  1000	  1000
   559	     1	  1000	  1000	  1000
   560	     1	  1000	  1000	  1000
   561	     1	  1000	  1000	  1000
   562	     1	  1000	  1000	  1000
   563	     1	  1000	  1000	  1000
   564	     1	  1000	  1000	  1000
   565	     1	  1000	  1000	  1000
   566	     1	  1000	  1000	  1000
   567	     1	  1000	  1000	  1000
   568	     1	  1000	  1000	  1000
   569	     1	  1000	  1000	  1000
   570	     1	  1000	  1000	  1000
   571	     1	  1000	  1000	  1000
   572	     1	  1000	  1000	  1000
   573	     1	  1000	  1000	  1000
   574	     1	  1000	  1000	  1000
   575	     1	  1000	  1000	  1000
   576	     1	  1000	  1000	  1000
   577	     1	  1000	  1000	  1000
   578	     1	  1000	  1000	  1000
   579	     1	  1000	  1000	  1000
   580	     1	  1000	  1000	  1000
   581	     1	  1000	  1000	  1000
   582	     1	  1000	  1000	  1000
   583	     1	  1000	  1000	  1000
   584	     1	  1000	  1000	  1000
   585	     1	  1000	  1000	  1000
   586	     1	  1000	  1000	  1000
   587	     1	  1000	  1000	  1000
   588	     1	  1000	  1000	  1000
   589	     1	  1000	  1000	  1000
   590	     1	  1000	  1000	  1000
   591	     1	  1000	  1000	  1000
   592	     1	  1000	  1000	  1000
   593	     1	  1000	  1000	  1000
   594	     1	  1000	  1000	  1000
   595	     1	  1000	  1000	  1000
   596	     1	  1000	  1000	  1000
   597	     1	  1000	  1000	  1000
   598	     1	  1000	  1000	  1000
   599	     1	  1000	  1000	  1000
   600	     1	  1000	  1000	  1000
   601	     1	  1000	  1000	  1000
   602	     1	  1000	  1000	  1000
   603	     1	  1000	  1000	  1000
   604	     1	  1000	  1000	  1000
   605	     1	  1000	  1000	  1000
   606	     1	  1000	  1000	  1000
   607	     1	  1000	  1000	  1000
   608	     1	  1000	  1000	  1000
   609	     1	  1000	  1000	  1000
   610	     1	  1000	  1000	  1000
   611	     1	  1000	  1000	  1000
   612	     1	  1000	  1000	  1000
   613	     1	  1000	  1000	  1000
   614	     1	  1000	  1000	  1000
   615	     1	  1000	  1000	  1000
   616	     1	  1000	  1000	  1000
   617	     1	  1000	  1000	  1000
   618	     1	  1000	  1000	  1000
   619	     1	  1000	  1000	  1000
   620	     1	  1000	  1000	  1000
   621	     1	  1000	  1000	  1000
   622	     1	  1000	  1000	  1000
   623	     1	  1000	  1000	  1000
   624	     1	  1000	  1000	  1000
   625	     1	  1000	  1000	  1000
   626	     1	  1000	  1000	  1000
   627	     1	  1000	  1000	  1000
   628	     1	  1000	  1000	  1000
   629	     1	  1000	  1000	  1000
   630	     1	  1000	  1000	  1000
   631	     1	  1000	  1000	  1000
   632	     1	  1000	  1000	  1000
   633	     1	  1000	  1000	  1000
   634	     1	  1000	  1000	  1000
   635	     1	  1000	  1000	  1000
   636	     1	  1000	  1000	  1000
   637	     1	  1000	  1000	  1000
   638	     1	  1000	  1000	  1000
   639	     1	  1000	  1000	  1000
   640	     1	  1000	  1000	  1000
   641	     1	  1000	  1000	  1000
   642	     1	  1000	  1000	  1000
   643	     1	  1000	  1000	  1000
   644	     1	  1000	  1000	  1000
   645	     1	  1000	  1000	  1000
   646	     1	  1000	  1000	  1000
   647	     1	  1000	  1000	  1000
   648	     1	  1000	  1000	  1000
   649	     1	  1000	  1000	  1000
   650	     1	  1000	  1000	  1000
   651	     1	  1000	  1000	  1000
   652	     1	  1000	  1000	  1000
   653	     1	  1000	  1000	  1000
   654	     1	  1000	  1000	  1000
   655	     1	  1000	  1000	  1000
   656	     1	  1000	  1000	  1000
   657	     1	  1000	  1000	  1000
   658	     1	  1000	  1000	  1000
   659	     1	  1000	  1000	  1000
   660	     1	  1000	  1000	  1000
   661	     1	  1000	  1000	  1000
   662	     1	  1000	  1000	  1000
   663	     1	  1000	  1000	  1000
   664	     1	  1000	  1000	  1000
   665	     1	  1000	  1000	  1000
   666	     1	  1000	  1000	  1000
   667	     1	  1000	  1000	  1000
   668	     1	  1000	  1000	  1000
   669	     1	  1000	  1000	  1000
   670	     1	  1000	  1000	  1000
   671	     1	  1000	  1000	  1000
   672	     1	  1000	  1000	  1000
   673	     1	  1000	  1000	  1000
   674	     1	  1000	  1000	  1000
   675	     1	  1000	  1000	  1000
   676	     1	  1000	  1000	  1000
   677	     1	  1000	  1000	  1000
   678	     1	  1000	  1000	  1000
   679	     1	  1000	  1000	  1000
   680	     1	  1000	  1000	  1000
   681	     1	  1000	  1000	  1000
   682	     1	  1000	  1000	  1000
   683	     1	  1000	  1000	  1000
   684	     1	  1000	  1000	  1000
   685	     1	  1000	  1000	  1000
   686	     1	  1000	  1000	  1000
   687	     1	  1000	  1000	  1000
   688	     1	  1000	  1000	  1000
   689	     1	  1000	  1000	  1000
   690	     1	  1000	  1000	  1000
   691	     1	  1000	  1000	  1000
   692	     1	  1000	  1000	  1000
   693	     1	  1000	  1000	  1000
   694	     1	  1000	  1000	  1000
   695	     1	  1000	  1000	  1000
   696	     1	  1000	  1000	  1000
   697	     1	  1000	  1000	  1000
   698	     1	  1000	  1000	  1000
   699	     1	  1000	  1000	  1000
   700	     1	  1000	  1000	  1000
   701	     1	  1000	  1000	  1000
   702	     1	  1000	  1000	  1000
   703	     1	  1000	  1000	  1000
   704	     1	  1000	  1000	  1000
   705	     1	  1000	  1000	  1000
   706	     1	  1000	  1000	  1000
   707	     1	  1000	  1000	  1000
   708	     1	  1000	  1000	  1000
   709	     1	  1000	  1000	  1000
   710	     1	  1000	  1000	  1000
   711	     1	  1000	  1000	  1000
   712	     1	  1000	  1000	  1000
   713	     1	  1000	  1000	  1000
   714	     1	  1000	  1000	  1000
   715	     1	  1000	  1000	  1000
   716	     1	  1000	  1000	  1000
   717	     1	  1000	  1000	  1000
   718	     1	  1000	  1000	  1000
   719	     1	  1000	  1000	  1000
   720	     1	  1000	  1000	  1000
   721	     1	  1000	  1000	  1000
   722	     1	  1000	  1000	  1000
   723	     1	  1000	  1000	  1000
   724	     1	  1000	  1000	  1000
   725	     1	  1000	  1000	  1000
   726	     1	  1000	  1000	  1000
   727	     1	  1000	  1000	  1000
   728	     1	  1000	  1000	  1000
   729	     1	  1000	  1000	  1000
   730	     1	  1000	  1000	  1000
   731	     1	  1000	  1000	  1000
   732	     1	  1000	  1000	  1000
   733	     1	  1000	  1000	  1000
   734	     1	  1000	  1000	  1000
   735	     1	  1000	  1000	  1000
   736	     1	  1000	  1000	  1000
   737	     1	  1000	  1000	  1000
   738	     1	  1000	  1000	  1000
   739	     1	  1000	  1000	  1000
   740	     1	  1000	  1000	  1000
   741	     1	  1000	  1000	  1000
   742	     1	  1000	  1000	  1000
   743	     1	  1000	  1000	  1000
   744	     1	  1000	  1000	  1000
   745	     1	  1000	  1000	  1000
   746	     1	  1000	  1000	  1000
   747	     1	  1000	  1000	  1000
   748	     1	  1000	  1000	  1000
   749	     1	  1000	  1000	  1000
   750	     1	  1000	  1000	  1000
   751	     1	  1000	  1000	  1000
   752	     1	  1000	  1000	  1000
   753	     1	  1000	  1000	  1000
   754	     1	  1000	  1000	  1000
   755	     1	  1000	  1000	  1000
   756	     1	  1000	  1000	  1000
   757	     1	  1000	  1000	  1000
   758	     1	  1000	  1000	  1000
   759	     1	  1000	  1000	  1000
   760	     1	  1000	  1000	  1000
   761	     1	  1000	  1000	  1000
   762	     1	  1000	  1000	  1000
   763	     1	  1000	  1000	  1000
   764	     1	  1000	  1000	  1000
   765	     1	  1000	  1000	  1000
   766	     1	  1000	  1000	  1000
   767	     1	  1000	  1000	  1000
   768	     1	  1000	  1000	  1000
   769	     1	  1000	  1000	  1000
   770	     1	  1000	  1000	  1000
   771	     1	  1000	  1000	  1000
   772	     1	  1000	  1000	  1000
   773	     1	  1000	  1000	  1000
   774	     1	  1000	  1000	  1000
   775	     1	  1000	  1000	  1000
   776	     1	  1000	  1000	  1000
   777	     1	  1000	  1000	  1000
   778	     1	  1000	  1000	  1000
   779	     1	  1000	  1000	  1000
   780	     1	  1000	  1000	  1000
   781	     1	  1000	  1000	  1000
   782	     1	  1000	  1000	  1000
   783	     1	  1000	  1000	  1000
   784	     1	  1000	  1000	  1000
   785	     1	  1000	  1000	  1000
   786	     1	  1000	  1000	  1000
   787	     1	  1000	  1000	  1000
   788	     1	  1000	  1000	  1000
   789	     1	  1000	  1000	  1000
   790	     1	  1000	  1000	  1000
   791	     1	  1000	  1000	  1000
   792	     1	  1000	  1000	  1000
   793	     1	  1000	  1000	  1000
   794	     1	  1000	  1000	  1000
   795	     1	  1000	  1000	  1000
   796	     1	  1000	  1000	  1000
   797	     1	  1000	  1000	  1000
   798	     1	  1000	  1000	  1000
   799	     1	  1000	  1000	  1000
   800	     1	  1000	  1000	  1000
   801	     1	  1000	  1000	  1000
   802	     1	  1000	  1000	  1000
   803	     1	  1000	  1000	  1000
   804	     1	  1000	  1000	  1000
   805	     1	  1000	  1000	  1000
   806	     1	  1000	  1000	  1000
   807	     1	  1000	  1000	  1000
   808	     1	  1000	  1000	  1000
   809	     1	  1000	  1000	  1000
   810	     1	  1000	  1000	  1000
   811	     1	  1000	  1000	  1000
   812	     1	  1000	  1000	  1000
   813	     1	  1000	  1000	  1000
   814	     1	  1000	  1000	  1000
   815	     1	  1000	  1000	  1000
   816	     1	  1000	  1000	  1000
   817	     1	  1000	  1000	  1000
   818	     1	  1000	  1000	  1000
   819	     1	  1000	  1000	  1000
   820	     1	  1000	  1000	  1000
   821	     1	  1000	  1000	  1000
   822	     1	  1000	  1000	  1000
   823	     1	  1000	  1000	  1000
   824	     1	  1000	  1000	  1000
   825	     1	  1000	  1000	  1000
   826	     1	  1000	  1000	  1000
   827	     1	  1000	  1000	  1000
   828	     1	  1000	  1000	  1000
   829	     1	  1000	  1000	  1000
   830	     1	  1000	  1000	  1000
   831	     1	  1000	  1000	  1000
   832	     1	  1000	  1000	  1000
   833	     1	  1000	  1000	  1000
   834	     1	  1000	  1000	  1000
   835	     1	  1000	  1000	  1000
   836	     1	  1000	  1000	  1000
   837	     1	  1000	  1000	  1000
   838	     1	  1000	  1000	  1000
   839	     1	  1000	  1000	  1000
   840	     1	  1000	  1000	  1000
   841	     1	  1000	  1000	  1000
   842	     1	  1000	  1000	  1000
   843	     1	  1000	  1000	  1000
   844	     1	  1000	  1000	  1000
   845	     1	  1000	  1000	  1000
   846	     1	  1000	  1000	  1000
   847	     1	  1000	  1000	  1000
   848	     1	  1000	  1000	  1000
   849	     1	  1000	  1000	  1000
   850	     1	  1000	  1000	  1000
   851	     1	  1000	  1000	  1000
   852	     1	  1000	  1000	  1000
   853	     1	  1000	  1000	  1000
   854	     1	  1000	  1000	  1000
   855	     1	  1000	  1000	  1000
   856	     1	  1000	  1000	  1000
   857	     1	  1000	  1000	  1000
   858	     1	  1000	  1000	  1000
   859	     1	  1000	  1000	  1000
   860	     1	  1000	  1000	  1000
   861	     1	  1000	  1000	  1000
   862	     1	  1000	  1000	  1000
   863	     1	  1000	  1000	  1000
   864	     1	  1000	  1000	  1000
   865	     1	  1000	  1000	  1000
   866	     1	  1000	  1000	  1000
   867	     1	  1000	  1000	  1000
   868	     1	  1000	  1000	  1000
   869	     1	  1000	  1000	  1000
   870	     1	  1000	  1000	  1000
   871	     1	  1000	  1000	  1000
   872	     1	  1000	  1000	  1000
   873	     1	  1000	  1000	  1000
   874	     1	  1000	  1000	  1000
   875	     1	  1000	  1000	  1000
   876	     1	  1000	  1000	  1000
   877	     1	  1000	  1000	  1000
   878	     1	  1000	  1000	  1000
   879	     1	  1000	  1000	  1000
   880	     1	  1000	  1000	  1000
   881	     1	  1000	  1000	  1000
   882	     1	  1000	  1000	  1000
   883	     1	  1000	  1000	  1000
   884	     1	  1000	  1000	  1000
   885	     1	  1000	  1000	  1000
   886	     1	  1000	  1000	  1000
   887	     1	  1000	  1000	  1000
   888	     1	  1000	  1000	  1000
   889	     1	  1000	  1000	  1000
   890	     1	  1000	  1000	  1000
   891	     1	  1000	  1000	  1000
   892	     1	  1000	  1000	  1000
   893	     1	  1000	  1000	  1000
   894	     1	  1000	  1000	  1000
   895	     1	  1000	  1000	  1000
   896	     1	  1000	  1000	  1000
   897	     1	  1000	  1000	  1000
   898	     1	  1000	  1000	  1000
   899	     1	  1000	  1000	  1000
   900	     1	  1000	  1000	  1000
   901	     1	  1000	  1000	  1000
   902	     1	  1000	  1000	  1000
   903	     1	  1000	  1000	  1000
   904	     1	  1000	  1000	  1000
   905	     1	  1000	  1000	  1000
   906	     1	  1000	  1000	  1000
   907	     1	  1000	  1000	  1000
   908	     1	  1000	  1000	  1000
   909	     1	  1000	  1000	  1000
   910	     1	  1000	  1000	  1000
   911	     1	  1000	  1000	  1000
   912	     1	  1000	  1000	  1000
   913	     1	  1000	  1000	  1000
   914	     1	  1000	  1000	  1000
   915	     1	  1000	  1000	  1000
   916	     1	  1000	  1000	  1000
   917	     1	  1000	  1000	  1000
   918	     1	  1000	  1000	  1000
   919	     1	  1000	  1000	  1000
   920	     1	  1000	  1000	  1000
   921	     1	  1000	  1000	  1000
   922	     1	  1000	  1000	  1000
   923	     1	  1000	  1000	  1000
   924	     1	  1000	  1000	  1000
   925	     1	  1000	  1000	  1000
   926	     1	  1000	  1000	  1000
   927	     1	  1000	  1000	  1000
   928	     1	  1000	  1000	  1000
   929	     1	  1000	  1000	  1000
   930	     1	  1000	  1000	  1000
   931	     1	  1000	  1000	  1000
   932	     1	  1000	  1000	  1000
   933	     1	  1000	  1000	  1000
   934	     1	  1000	  1000	  1000
   935	     1	  1000	  1000	  1000
   936	     1	  1000	  1000	  1000
   937	     1	  1000	  1000	  1000
   938	     1	  1000	  1000	  1000
   939	     1	  1000	  1000	  1000
   940	     1	  1000	  1000	  1000
   941	     1	  1000	  1000	  1000
   942	     1	  1000	  1000	  1000
   943	     1	  1000	  1000	  1000
   944	     1	  1000	  1000	  1000
   945	     1	  1000	  1000	  1000
   946	     1	  1000	  1000	  1000
   947	     1	  1000	  1000	  1000
   948	     1	  1000	  1000	  1000
   949	     1	  1000	  1000	  1000
   950	     1	  1000	  1000	  1000
   951	     1	  1000	  1000	  1000
   952	     1	  1000	  1000	  1000
   953	     1	  1000	  1000	  1000
   954	     1	  1000	  1000	  1000
   955	     1	  1000	  1000	  1000
   956	     1	  1000	  1000	  1000
   957	     1	  1000	  1000	  1000
   958	     1	  1000	  1000	  1000
   959	     1	  1000	  1000	  1000
   960	     1	  1000	  1000	  1000
   961	     1	  1000	  1000	  1000
   962	     1	  1000	  1000	  1000
   963	     1	  1000	  1000	  1000
   964	     1	  1000	  1000	  1000
   965	     1	  1000	  1000	  1000
   966	     1	  1000	  1000	  1000
   967	     1	  1000	  1000	  1000
   968	     1	  1000	  1000	  1000
   969	     1	  1000	  1000	  1000
   970	     1	  1000	  1000	  1000
   971	     1	  1000	  1000	  1000
   972	     1	  1000	  1000	  1000
   973	     1	  1000	  1000	  1000
   974	     1	  1000	  1000	  1000
   975	     1	  1000	  1000	  1000
   976	     1	  1000	  1000	  1000
   977	     1	  1000	  1000	  1000
   978	     1	  1000	  1000	  1000
   979	     1	  1000	  1000	  1000
   980	     1	  1000	  1000	  1000
   981	     1	  1000	  1000	  1000
   982	     1	  1000	  1000	  1000
   983	     1	  1000	  1000	  1000
   984	     1	  1000	  1000	  1000
   985	     1	  1000	  1000	  1000
   986	     1	  1000	  1000	  1000
   987	     1	  1000	  1000	  1000
   988	     1	  1000	  1000	  1000
   989	     1	  1000	  1000	  1000
   990	     1	  1000	  1000	  1000
   991	     1	  1000	  1000	  1000
   992	     1	  1000	  1000	  1000
   993	     1	  1000	  1000	  1000
   994	     1	  1000	  1000	  1000
   995	     1	  1000	  1000	  1000
   996	     1	  1000	  1000	  1000
   997	     1	  1000	  1000	  1000
   998	     1	  1000	  1000	  1000
   999	     1	  1000	  1000	  1000
  1000	     1	  1000	  1000	  1000
  1001	     1	  1000	  1000	  1000
  1002	     1	  1000	  1000	  1000
  1003	     1	  1000	  1000	  1000
  1004	     1	  1000	  1000	  1000
  1005	     1	  1000	  1000	  1000
  1006	     1	  1000	  1000	  1000
  1007	     1	  1000	  1000	  1000
  1008	     1	  1000	  1000	  1000
  1009	     1	  1000	  1000	  1000
  1010	     1	  1000	  1000	  1000
  1011	     1	  1000	  1000	  1000
  1012	     1	  1000	  1000	  1000
  1013	     1	  1000	  1000	  1000
  1014	     1	  1000	  1000	  1000
  1015	     1	  1000	  1000	  1000
  1016	     1	  1000	  1000	  1000
  1017	     1	  1000	  1000	  1000
  1018	     1	  1000	  1000	  1000
  1019	     1	  1000	  1000	  1000
  1020	     1	  1000	  1000	  1000
  1021	     1	  1000	  1000	  1000
  1022	     1	  1000	  1000	  1000
  1023	     1	  1000	  1000	  1000
  1024	     1	  1000	  1000	  1000
  1025	     1	  1000	  1000	  1000
  1026	     1	  1000	  1000	  1000
  1027	     1	  1000	  1000	  1000
  1028	     1	  1000	  1000	  1000
  1029	     1	  1000	  1000	  1000
  1030	     1	  1000	  1000	  1000
  1031	     1	  1000	  1000	  1000
  1032	     1	  1000	  1000	  1000
  1033	     1	  1000	  1000	  1000
  1034	     1	  1000	  1000	  1000
  1035	     1	  1000	  1000	  1000
  1036	     1	  1000	  1000	  1000
  1037	     1	  1000	  1000	  1000
  1038	     1	  1000	  1000	  1000
  1039	     1	  1000	  1000	  1000
  1040	     1	  1000	  1000	  1000
  1041	     1	  1000	  1000	  1000
  1042	     1	  1000	  1000	  1000
  1043	     1	  1000	  1000	  1000
  1044	     1	  1000	  1000	  1000
  1045	     1	  1000	  1000	  1000
  1046	     1	  1000	  1000	  1000
  1047	     1	  1000	  1000	  1000
  1048	     1	  1000	  1000	  1000
  1049	     1	  1000	  1000	  1000
  1050	     1	  1000	  1000	  1000
  1051	     1	  1000	  1000	  1000
  1052	     1	  1000	  1000	  1000
  1053	     1	  1000	  1000	  1000
  1054	     1	  1000	  1000	  1000
  1055	     1	  1000	  1000	  1000
  1056	     1	  1000	  1000	  1000
  1057	     1	  1000	  1000	  1000
  1058	     1	  1000	  1000	  1000
  1059	     1	  1000	  1000	  1000
  1060	     1	  1000	  1000	  1000
  1061	     1	  1000	  1000	  1000
  1062	     1	  1000	  1000	  1000
  1063	     1	  1000	  1000	  1000
  1064	     1	  1000	  1000	  1000
  1065	     1	  1000	  1000	  1000
  1066	     1	  1000	  1000	  1000
  1067	     1	  1000	  1000	  1000
  1068	     1	  1000	  1000	  1000
  1069	     1	  1000	  1000	  1000
  1070	     1	  1000	  1000	  1000
  1071	     1	  1000	  1000	  1000
  1072	     1	  1000	  1000	  1000
  1073	     1	  1000	  1000	  1000
  1074	     1	  1000	  1000	  1000
  1075	     1	  1000	  1000	  1000
  1076	     1	  1000	  1000	  1000
  1077	     1	  1000	  1000	  1000
  1078	     1	  1000	  1000	  1000
  1079	     1	  1000	  1000	  1000
  1080	     1	  1000	  1000	  1000
  1081	     1	  1000	  1000	  1000
  1082	     1	  1000	  1000	  1000
  1083	     1	  1000	  1000	  1000
  1084	     1	  1000	  1000	  1000
  1085	     1	  1000	  1000	  1000
  1086	     1	  1000	  1000	  1000
  1087	     1	  1000	  1000	  1000
  1088	     1	  1000	  1000	  1000
  1089	     1	  1000	  1000	  1000
  1090	     1	  1000	  1000	  1000
  1091	     1	  1000	  1000	  1000
  1092	     1	  1000	  1000	  1000
  1093	     1	  1000	  1000	  1000
  1094	     1	  1000	  1000	  1000
  1095	     1	  1000	  1000	  1000
  1096	     1	  1000	  1000	  1000
  1097	     1	  1000	  1000	  1000
  1098	     1	  1000	  1000	  1000
  1099	     1	  1000	  1000	  1000
  1100	     1	  1000	  1000	  1000
  1101	     1	  1000	  1000	  1000
  1102	     1	  1000	  1000	  1000
  1103	     1	  1000	  1000	  1000
  1104	     1	  1000	  1000	  1000
  1105	     1	  1000	  1000	  1000
  1106	     1	  1000	  1000	  1000
  1107	     1	  1000	  1000	  1000
  1108	     1	  1000	  1000	  1000
  1109	     1	  1000	  1000	  1000
  1110	     1	  1000	  1000	  1000
  1111	     1	  1000	  1000	  1000
  1112	     1	  1000	  1000	  1000
  1113	     1	  1000	  1000	  1000
  1114	     1	  1000	  1000	  1000
  1115	     1	  1000	  1000	  1000
  1116	     1	  1000	  1000	  1000
  1117	     1	  1000	  1000	  1000
  1118	     1	  1000	  1000	  1000
  1119	     1	  1000	  1000	  1000
  1120	     1	  1000	  1000	  1000
  1121	     1	  1000	  1000	  1000
  1122	     1	  1000	  1000	  1000
  1123	     1	  1000	  1000	  1000
  1124	     1	  1000	  1000	  1000
  1125	     1	  1000	  1000	  1000
  1126	     1	  1000	  1000	  1000
  1127	     1	  1000	  1000	  1000
  1128	     1	  1000	  1000	  1000
  1129	     1	  1000	  1000	  1000
  1130	     1	  1000	  1000	  1000
  1131	     1	  1000	  1000	  1000
  1132	     1	  1000	  1000	  1000
  1133	     1	  1000	  1000	  1000
  1134	     1	  1000	  1000	  1000
  1135	     1	  1000	  1000	  1000
  1136	     1	  1000	  1000	  1000
  1137	     1	  1000	  1000	  1000
  1138	     1	  1000	  1000	  1000
  1139	     1	  1000	  1000	  1000
  1140	     1	  1000	  1000	  1000
  1141	     1	  1000	  1000	  1000
  1142	     1	  1000	  1000	  1000
  1143	     1	  1000	  1000	  1000
  1144	     1	  1000	  1000	  1000
  1145	     1	  1000	  1000	  1000
  1146	     1	  1000	  1000	  1000
  1147	     1	  1000	  1000	  1000
  1148	     1	  1000	  1000	  1000
  1149	     1	  1000	  1000	  1000
  1150	     1	  1000	  1000	  1000
  1151	     1	  1000	  1000	  1000
  1152	     1	  1000	  1000	  1000
  1153	     1	  1000	  1000	  1000
  1154	     1	  1000	  1000	  1000
  1155	     1	  1000	  1000	  1000
  1156	     1	  1000	  1000	  1000
  1157	     1	  1000	  1000	  1000
  1158	     1	  1000	  1000	  1000
  1159	     1	  1000	  1000	  1000
  1160	     1	  1000	  1000	  1000
  1161	     1	  1000	  1000	  1000
  1162	     1	  1000	  1000	  1000
  1163	     1	  1000	  1000	  1000
  1164	     1	  1000	  1000	  1000
  1165	     1	  1000	  1000	  1000
  1166	     1	  1000	  1000	  1000
  1167	     1	  1000	  1000	  1000
  1168	     1	  1000	  1000	  1000
  1169	     1	  1000	  1000	  1000
  1170	     1	  1000	  1000	  1000
  1171	     1	  1000	  1000	  1000
  1172	     1	  1000	  1000	  1000
  1173	     1	  1000	  1000	  1000
  1174	     1	  1000	  1000	  1000
  1175	     1	  1000	  1000	  1000
  1176	     1	  1000	  1000	  1000
  1177	     1	  1000	  1000	  1000
  1178	     1	  1000	  1000	  1000
  1179	     1	  1000	  1000	  1000
  1180	     1	  1000	  1000	  1000
  1181	     1	  1000	  1000	  1000
  1182	     1	  1000	  1000	  1000
  1183	     1	  1000	  1000	  1000
  1184	     1	  1000	  1000	  1000
  1185	     1	  1000	  1000	  1000
  1186	     1	  1000	  1000	  1000
  1187	     1	  1000	  1000	  1000
  1188	     1	  1000	  1000	  1000
  1189	     1	  1000	  1000	  1000
  1190	     1	  1000	  1000	  1000
  1191	     1	  1000	  1000	  1000
  1192	     1	  1000	  1000	  1000
  1193	     1	  1000	  1000	  1000
  1194	     1	  1000	  1000	  1000
  1195	     1	  1000	  1000	  1000
  1196	     1	  1000	  1000	  1000
  1197	     1	  1000	  1000	  1000
  1198	     1	  1000	  1000	  1000
  1199	     1	  1000	  1000	  1000
  1200	     1	  1000	  1000	  1000
  1201	     1	  1000	  1000	  1000
  1202	     1	  1000	  1000	  1000
  1203	     1	  1000	  1000	  1000
  1204	     1	  1000	  1000	  1000
  1205	     1	  1000	  1000	  1000
  1206	     1	  1000	  1000	  1000
  1207	     1	  1000	  1000	  1000
  1208	     1	  1000	  1000	  1000
  1209	     1	  1000	  1000	  1000
  1210	     1	  1000	  1000	  1000
  1211	     1	  1000	  1000	  1000
  1212	     1	  1000	  1000	  1000
  1213	     1	  1000	  1000	  1000
  1214	     1	  1000	  1000	  1000
  1215	     1	  1000	  1000	  1000
  1216	     1	  1000	  1000	  1000
  1217	     1	  1000	  1000	  1000
  1218	     1	  1000	  1000	  1000
  1219	     1	  1000	  1000	  1000
  1220	     1	  1000	  1000	  1000
  1221	     1	  1000	  1000	  1000
  1222	     1	  1000	  1000	  1000
  1223	     1	  1000	  1000	  1000
  1224	     1	  1000	  1000	  1000
  1225	     1	  1000	  1000	  1000
  1226	     1	  1000	  1000	  1000
  1227	     1	  1000	  1000	  1000
  1228	     1	  1000	  1000	  1000
  1229	     1	  1000	  1000	  1000
  1230	     1	  1000	  1000	  1000
  1231	     1	  1000	  1000	  1000
  1232	     1	  1000	  1000	  1000
  1233	     1	  1000	  1000	  1000
  1234	     1	  1000	  1000	  1000
  1235	     1	  1000	  1000	  1000
  1236	     1	  1000	  1000	  1000
  1237	     1	  1000	  1000	  1000
  1238	     1	  1000	  1000	  1000
  1239	     1	  1000	  1000	  1000
  1240	     1	  1000	  1000	  1000
  1241	     1	  1000	  1000	  1000
  1242	     1	  1000	  1000	  1000
  1243	     1	  1000	  1000	  1000
  1244	     1	  1000	  1000	  1000
  1245	     1	  1000	  1000	  1000
  1246	     1	  1000	  1000	  1000
  1247	     1	  1000	  1000	  1000
  1248	     1	  1000	  1000	  1000
  1249	     1	  1000	  1000	  1000
  1250	     1	  1000	  1000	  1000
  1251	     1	  1000	  1000	  1000
  1252	     1	  1000	  1000	  1000
  1253	     1	  1000	  1000	  1000
  1254	     1	  1000	  1000	  1000
  1255	     1	  1000	  1000	  1000
  1256	     1	  1000	  1000	  1000
  1257	     1	  1000	  1000	  1000
  1258	     1	  1000	  1000	  1000
  1259	     1	  1000	  1000	  1000
  1260	     1	  1000	  1000	  1000
  1261	     1	  1000	  1000	  1000
  1262	     1	  1000	  1000	  1000
  1263	     1	  1000	  1000	  1000
  1264	     1	  1000	  1000	  1000
  1265	     1	  1000	  1000	  1000
  1266	     1	  1000	  1000	  1000
  1267	     1	  1000	  1000	  1000
  1268	     1	  1000	  1000	  1000
  1269	     1	  1000	  1000	  1000
  1270	     1	  1000	  1000	  1000
  1271	     1	  1000	  1000	  1000
  1272	     1	  1000	  1000	  1000
  1273	     1	  1000	  1000	  1000
  1274	     1	  1000	  1000	  1000
  1275	     1	  1000	  1000	  1000
  1276	     1	  1000	  1000	  1000
  1277	     1	  1000	  1000	  1000
  1278	     1	  1000	  1000	  1000
  1279	     1	  1000	  1000	  1000
  1280	     1	  1000	  1000	  1000
  1281	     1	  1000	  1000	  1000
  1282	     1	  1000	  1000	  1000
  1283	     1	  1000	  1000	  1000
  1284	     1	  1000	  1000	  1000
  1285	     1	  1000	  1000	  1000
  1286	     1	  1000	  1000	  1000
  1287	     1	  1000	  1000	  1000
  1288	     1	  1000	  1000	  1000
  1289	     1	  1000	  1000	  1000
  1290	     1	  1000	  1000	  1000
  1291	     1	  1000	  1000	  1000
  1292	     1	  1000	  1000	  1000
  1293	     1	  1000	  1000	  1000
  1294	     1	  1000	  1000	  1000
  1295	     1	  1000	  1000	  1000
  1296	     1	  1000	  1000	  1000
  1297	     1	  1000	  1000	  1000
  1298	     1	  1000	  1000	  1000
  1299	     1	  1000	  1000	  1000
  1300	     1	  1000	  1000	  1000
  1301	     1	  1000	  1000	  1000
  1302	     1	  1000	  1000	  1000
  1303	     1	  1000	  1000	  1000
  1304	     1	  1000	  1000	  1000
  1305	     1	  1000	  1000	  1000
  1306	     1	  1000	  1000	  1000
  1307	     1	  1000	  1000	  1000
  1308	     1	  1000	  1000	  1000
  1309	     1	  1000	  1000	  1000
  1310	     1	  1000	  1000	  1000
  1311	     1	  1000	  1000	  1000
  1312	     1	  1000	  1000	  1000
  1313	     1	  1000	  1000	  1000
  1314	     1	  1000	  1000	  1000
  1315	     1	  1000	  1000	  1000
  1316	     1	  1000	  1000	  1000
  1317	     1	  1000	  1000	  1000
  1318	     1	  1000	  1000	  1000
  1319	     1	  1000	  1000	  1000
  1320	     1	  1000	  1000	  1000
  1321	     1	  1000	  1000	  1000
  1322	     1	  1000	  1000	  1000
  1323	     1	  1000	  1000	  1000
  1324	     1	  1000	  1000	  1000
  1325	     1	  1000	  1000	  1000
  1326	     1	  1000	  1000	  1000
  1327	     1	  1000	  1000	  1000
  1328	     1	  1000	  1000	  1000
  1329	     1	  1000	  1000	  1000
  1330	     1	  1000	  1000	  1000
  1331	     1	  1000	  1000	  1000
  1332	     1	  1000	  1000	  1000
  1333	     1	  1000	  1000	  1000
  1334	     1	  1000	  1000	  1000
  1335	     1	  1000	  1000	  1000
  1336	     1	  1000	  1000	  1000
  1337	     1	  1000	  1000	  1000
  1338	     1	  1000	  1000	  1000
  1339	     1	  1000	  1000	  1000
  1340	     1	  1000	  1000	  1000
  1341	     1	  1000	  1000	  1000
  1342	     1	  1000	  1000	  1000
  1343	     1	  1000	  1000	  1000
  1344	     1	  1000	  1000	  1000
  1345	     1	  1000	  1000	  1000
  1346	     1	  1000	  1000	  1000
  1347	     1	  1000	  1000	  1000
  1348	     1	  1000	  1000	  1000
  1349	     1	  1000	  1000	  1000
  1350	     1	  1000	  1000	  1000
  1351	     1	  1000	  1000	  1000
  1352	     1	  1000	  1000	  1000
  1353	     1	  1000	  1000	  1000
  1354	     1	  1000	  1000	  1000
  1355	     1	  1000	  1000	  1000
  1356	     1	  1000	  1000	  1000
  1357	     1	  1000	  1000	  1000
  1358	     1	  1000	  1000	  1000
  1359	     1	  1000	  1000	  1000
  1360	     1	  1000	  1000	  1000
  1361	     1	  1000	  1000	  1000
  1362	     1	  1000	  1000	  1000
  1363	     1	  1000	  1000	  1000
  1364	     1	  1000	  1000	  1000
  1365	     1	  1000	  1000	  1000
  1366	     1	  1000	  1000	  1000
  1367	     1	  1000	  1000	  1000
  1368	     1	  1000	  1000	  1000
  1369	     1	  1000	  1000	  1000
  1370	     1	  1000	  1000	  1000
  1371	     1	  1000	  1000	  1000
  1372	     1	  1000	  1000	  1000
  1373	     1	  1000	  1000	  1000
  1374	     1	  1000	  1000	  1000
  1375	     1	  1000	  1000	  1000
  1376	     1	  1000	  1000	  1000
  1377	     1	  1000	  1000	  1000
  1378	     1	  1000	  1000	  1000
  1379	     1	  1000	  1000	  1000
  1380	     1	  1000	  1000	  1000
  1381	     1	  1000	  1000	  1000
  1382	     1	  1000	  1000	  1000
  1383	     1	  1000	  1000	  1000
  1384	     1	  1000	  1000	  1000
  1385	     1	  1000	  1000	  1000
  1386	     1	  1000	  1000	  1000
  1387	     1	  1000	  1000	  1000
  1388	     1	  1000	  1000	  1000
  1389	     1	  1000	  1000	  1000
  1390	     1	  1000	  1000	  1000
  1391	     1	  1000	  1000	  1000
  1392	     1	  1000	  1000	  1000
  1393	     1	  1000	  1000	  1000
  1394	     1	  1000	  1000	  1000
  1395	     1	  1000	  1000	  1000
  1396	     1	  1000	  1000	  1000
  1397	     1	  1000	  1000	  1000
  1398	     1	  1000	  1000	  1000
  1399	     1	  1000	  1000	  1000
  1400	     1	  1000	  1000	  1000
  1401	     1	  1000	  1000	  1000
  1402	     1	  1000	  1000	  1000
  1403	     1	  1000	  1000	  1000
  1404	     1	  1000	  1000	  1000
  1405	     1	  1000	  1000	  1000
  1406	     1	  1000	  1000	  1000
  1407	     1	  1000	  1000	  1000
  1408	     1	  1000	  1000	  1000
  1409	     1	  1000	  1000	  1000
  1410	     1	  1000	  1000	  1000
  1411	     1	  1000	  1000	  1000
  1412	     1	  1000	  1000	  1000
  1413	     1	  1000	  1000	  1000
  1414	     1	  1000	  1000	  1000
  1415	     1	  1000	  1000	  1000
  1416	     1	  1000	  1000	  1000
  1417	     1	  1000	  1000	  1000
  1418	     1	  1000	  1000	  1000
  1419	     1	  1000	  1000	  1000
  1420	     1	  1000	  1000	  1000
  1421	     1	  1000	  1000	  1000
  1422	     1	  1000	  1000	  1000
  1423	     1	  1000	  1000	  1000
  1424	     1	  1000	  1000	  1000
  1425	     1	  1000	  1000	  1000
  1426	     1	  1000	  1000	  1000
  1427	     1	  1000	  1000	  1000
  1428	     1	  1000	  1000	  1000
  1429	     1	  1000	  1000	  1000
  1430	     1	  1000	  1000	  1000
  1431	     1	  1000	  1000	  1000
  1432	     1	  1000	  1000	  1000
  1433	     1	  1000	  1000	  1000
  1434	     1	  1000	  1000	  1000
  1435	     1	  1000	  1000	  1000
  1436	     1	  1000	  1000	  1000
  1437	     1	  1000	  1000	  1000
  1438	     1	  1000	  1000	  1000
  1439	     1	  1000	  1000	  1000
  1440	     1	  1000	  1000	  1000
  1441	     1	  1000	  1000	  1000
  1442	     1	  1000	  1000	  1000
  1443	     1	  1000	  1000	  1000
  1444	     1	  1000	  1000	  1000
  1445	     1	  1000	  1000	  1000
  1446	     1	  1000	  1000	  1000
  1447	     1	  1000	  1000	  1000
  1448	     1	  1000	  1000	  1000
  1449	     1	  1000	  1000	  1000
  1450	     1	  1000	  1000	  1000
  1451	     1	  1000	  1000	  1000
  1452	     1	  1000	  1000	  1000
  1453	     1	  1000	  1000	  1000
  1454	     1	  1000	  1000	  1000
  1455	     1	  1000	  1000	  1000
  1456	     1	  1000	  1000	  1000
  1457	     1	  1000	  1000	  1000
  1458	     1	  1000	  1000	  1000
  1459	     1	  1000	  1000	  1000
  1460	     1	  1000	  1000	  1000
  1461	     1	  1000	  1000	  1000
  1462	     1	  1000	  1000	  1000
  1463	     1	  1000	  1000	  1000
  1464	     1	  1000	  1000	  1000
  1465	     1	  1000	  1000	  1000
  1466	     1	  1000	  1000	  1000
  1467	     1	  1000	  1000	  1000
  1468	     1	  1000	  1000	  1000
  1469	     1	  1000	  1000	  1000
  1470	     1	  1000	  1000	  1000
  1471	     1	  1000	  1000	  1000
  1472	     1	  1000	  1000	  1000
  1473	     1	  1000	  1000	  1000
  1474	     1	  1000	  1000	  1000
  1475	     1	  1000	  1000	  1000
  1476	     1	  1000	  1000	  1000
  1477	     1	  1000	  1000	  1000
  1478	     1	  1000	  1000	  1000
  1479	     1	  1000	  1000	  1000
  1480	     1	  1000	  1000	  1000
  1481	     1	  1000	  1000	  1000
  1482	     1	  1000	  1000	  1000
  1483	     1	  1000	  1000	  1000
  1484	     1	  1000	  1000	  1000
  1485	     1	  1000	  1000	  1000
  1486	     1	  1000	  1000	  1000
  1487	     1	  1000	  1000	  1000
  1488	     1	  1000	  1000	  1000
  1489	     1	  1000	  1000	  1000
  1490	     1	  1000	  1000	  1000
  1491	     1	  1000	  1000	  1000
  1492	     1	  1000	  1000	  1000
  1493	     1	  1000	  1000	  1000
  1494	     1	  1000	  1000	  1000
  1495	     1	  1000	  1000	  1000
  1496	     1	  1000	  1000	  1000
  1497	     1	  1000	  1000	  1000
  1498	     1	  1000	  1000	  1000
  1499	     1	  1000	  1000	  1000
  1500	     1	  1000	  1000	  1000
  1501	     1	  1000	  1000	  1000
  1502	     1	  1000	  1000	  1000
  1503	     1	  1000	  1000	  1000
  1504	     1	  1000	  1000	  1000
  1505	     1	  1000	  1000	  1000
  1506	     1	  1000	  1000	  1000
  1507	     1	  1000	  1000	  1000
  1508	     1	  1000	  1000	  1000
  1509	     1	  1000	  1000	  1000
  1510	     1	  1000	  1000	  1000
  1511	     1	  1000	  1000	  1000
  1512	     1	  1000	  1000	  1000
  1513	     1	  1000	  1000	  1000
  1514	     1	  1000	  1000	  1000
  1515	     1	  1000	  1000	  1000
  1516	     1	  1000	  1000	  1000
  1517	     1	  1000	  1000	  1000
  1518	     1	  1000	  1000	  1000
  1519	     1	  1000	  1000	  1000
  1520	     1	  1000	  1000	  1000
  1521	     1	  1000	  1000	  1000
  1522	     1	  1000	  1000	  1000
  1523	     1	  1000	  1000	  1000
  1524	     1	  1000	  1000	  1000
  1525	     1	  1000	  1000	  1000
  1526	     1	  1000	  1000	  1000
  1527	     1	  1000	  1000	  1000
  1528	     1	  1000	  1000	  1000
  1529	     1	  1000	  1000	  1000
  1530	     1	  1000	  1000	  1000
  1531	     1	  1000	  1000	  1000
  1532	     1	  1000	  1000	  1000
  1533	     1	  1000	  1000	  1000
  1534	     1	  1000	  1000	  1000
  1535	     1	  1000	  1000	  1000
  1536	     1	  1000	  1000	  1000
  1537	     1	  1000	  1000	  1000
  1538	     1	  1000	  1000	  1000
  1539	     1	  1000	  1000	  1000
  1540	     1	  1000	  1000	  1000
  1541	     1	  1000	  1000	  1000
  1542	     1	  1000	  1000	  1000
  1543	     1	  1000	  1000	  1000
  1544	     1	  1000	  1000	  1000
  1545	     1	  1000	  1000	  1000
  1546	     1	  1000	  1000	  1000
  1547	     1	  1000	  1000	  1000
  1548	     1	  1000	  1000	  1000
  1549	     1	  1000	  1000	  1000
  1550	     1	  1000	  1000	  1000
  1551	     1	  1000	  1000	  1000
  1552	     1	  1000	  1000	  1000
  1553	     1	  1000	  1000	  1000
  1554	     1	  1000	  1000	  1000
  1555	     1	  1000	  1000	  1000
  1556	     1	  1000	  1000	  1000
  1557	     1	  1000	  1000	  1000
  1558	     1	  1000	  1000	  1000
  1559	     1	  1000	  1000	  1000
  1560	     1	  1000	  1000	  1000
  1561	     1	  1000	  1000	  1000
  1562	     1	  1000	  1000	  1000
  1563	     1	  1000	  1000	  1000
  1564	     1	  1000	  1000	  1000
  1565	     1	  1000	  1000	  1000
  1566	     1	  1000	  1000	  1000
  1567	     1	  1000	  1000	  1000
  1568	     1	  1000	  1000	  1000
  1569	     1	  1000	  1000	  1000
  1570	     1	  1000	  1000	  1000
  1571	     1	  1000	  1000	  1000
  1572	     1	  1000	  1000	  1000
  1573	     1	  1000	  1000	  1000
  1574	     1	  1000	  1000	  1000
  1575	     1	  1000	  1000	  1000
  1576	     1	  1000	  1000	  1000
  1577	     1	  1000	  1000	  1000
  1578	     1	  1000	  1000	  1000
  1579	     1	  1000	  1000	  1000
  1580	     1	  1000	  1000	  1000
  1581	     1	  1000	  1000	  1000
  1582	     1	  1000	  1000	  1000
  1583	     1	  1000	  1000	  1000
  1584	     1	  1000	  1000	  1000
  1585	     1	  1000	  1000	  1000
  1586	     1	  1000	  1000	  1000
  1587	     1	  1000	  1000	  1000
  1588	     1	  1000	  1000	  1000
  1589	     1	  1000	  1000	  1000
  1590	     1	  1000	  1000	  1000
  1591	     1	  1000	  1000	  1000
  1592	     1	  1000	  1000	  1000
  1593	     1	  1000	  1000	  1000
  1594	     1	  1000	  1000	  1000
  1595	     1	  1000	  1000	  1000
  1596	     1	  1000	  1000	  1000
  1597	     1	  1000	  1000	  1000
  1598	     1	  1000	  1000	  1000
  1599	     1	  1000	  1000	  1000
  1600	     1	  1000	  1000	  1000
  1601	     1	  1000	  1000	  1000
  1602	     1	  1000	  1000	  1000
  1603	     1	  1000	  1000	  1000
  1604	     1	  1000	  1000	  1000
  1605	     1	  1000	  1000	  1000
  1606	     1	  1000	  1000	  1000
  1607	     1	  1000	  1000	  1000
  1608	     1	  1000	  1000	  1000
  1609	     1	  1000	  1000	  1000
  1610	     1	  1000	  1000	  1000
  1611	     1	  1000	  1000	  1000
  1612	     1	  1000	  1000	  1000
  1613	     1	  1000	  1000	  1000
  1614	     1	  1000	  1000	  1000
  1615	     1	  1000	  1000	  1000
  1616	     1	  1000	  1000	  1000
  1617	     1	  1000	  1000	  1000
  1618	     1	  1000	  1000	  1000
  1619	     1	  1000	  1000	  1000
  1620	     1	  1000	  1000	  1000
  1621	     1	  1000	  1000	  1000
  1622	     1	  1000	  1000	  1000
  1623	     1	  1000	  1000	  1000
  1624	     1	  1000	  1000	  1000
  1625	     1	  1000	  1000	  1000
  1626	     1	  1000	  1000	  1000
  1627	     1	  1000	  1000	  1000
  1628	     1	  1000	  1000	  1000
  1629	     1	  1000	  1000	  1000
  1630	     1	  1000	  1000	  1000
  1631	     1	  1000	  1000	  1000
  1632	     1	  1000	  1000	  1000
  1633	     1	  1000	  1000	  1000
  1634	     1	  1000	  1000	  1000
  1635	     1	  1000	  1000	  1000
  1636	     1	  1000	  1000	  1000
  1637	     1	  1000	  1000	  1000
  1638	     1	  1000	  1000	  1000
  1639	     1	  1000	  1000	  1000
  1640	     1	  1000	  1000	  1000
  1641	     1	  1000	  1000	  1000
  1642	     1	  1000	  1000	  1000
  1643	     1	  1000	  1000	  1000
  1644	     1	  1000	  1000	  1000
  1645	     1	  1000	  1000	  1000
  1646	     1	  1000	  1000	  1000
  1647	     1	  1000	  1000	  1000
  1648	     1	  1000	  1000	  1000
  1649	     1	  1000	  1000	  1000
  1650	     1	  1000	  1000	  1000
  1651	     1	  1000	  1000	  1000
  1652	     1	  1000	  1000	  1000
  1653	     1	  1000	  1000	  1000
  1654	     1	  1000	  1000	  1000
  1655	     1	  1000	  1000	  1000
  1656	     1	  1000	  1000	  1000
  1657	     1	  1000	  1000	  1000
  1658	     1	  1000	  1000	  1000
  1659	     1	  1000	  1000	  1000
  1660	     1	  1000	  1000	  1000
  1661	     1	  1000	  1000	  1000
  1662	     1	  1000	  1000	  1000
  1663	     1	  1000	  1000	  1000
  1664	     1	  1000	  1000	  1000
  1665	     1	  1000	  1000	  1000
  1666	     1	  1000	  1000	  1000
  1667	     1	  1000	  1000	  1000
  1668	     1	  1000	  1000	  1000
  1669	     1	  1000	  1000	  1000
  1670	     1	  1000	  1000	  1000
  1671	     1	  1000	  1000	  1000
  1672	     1	  1000	  1000	  1000
  1673	     1	  1000	  1000	  1000
  1674	     1	  1000	  1000	  1000
  1675	     1	  1000	  1000	  1000
  1676	     1	  1000	  1000	  1000
  1677	     1	  1000	  1000	  1000
  1678	     1	  1000	  1000	  1000
  1679	     1	  1000	  1000	  1000
  1680	     1	  1000	  1000	  1000
  1681	     1	  1000	  1000	  1000
  1682	     1	  1000	  1000	  1000
  1683	     1	  1000	  1000	  1000
  1684	     1	  1000	  1000	  1000
  1685	     1	  1000	  1000	  1000
  1686	     1	  1000	  1000	  1000
  1687	     1	  1000	  1000	  1000
  1688	     1	  1000	  1000	  1000
  1689	     1	  1000	  1000	  1000
  1690	     1	  1000	  1000	  1000
  1691	     1	  1000	  1000	  1000
  1692	     1	  1000	  1000	  1000
  1693	     1	  1000	  1000	  1000
  1694	     1	  1000	  1000	  1000
  1695	     1	  1000	  1000	  1000
  1696	     1	  1000	  1000	  1000
  1697	     1	  1000	  1000	  1000
  1698	     1	  1000	  1000	  1000
  1699	     1	  1000	  1000	  1000
  1700	     1	  1000	  1000	  1000
  1701	     1	  1000	  1000	  1000
  1702	     1	  1000	  1000	  1000
  1703	     1	  1000	  1000	  1000
  1704	     1	  1000	  1000	  1000
  1705	     1	  1000	  1000	  1000
  1706	     1	  1000	  1000	  1000
  1707	     1	  1000	  1000	  1000
  1708	     1	  1000	  1000	  1000
  1709	     1	  1000	  1000	  1000
  1710	     1	  1000	  1000	  1000
  1711	     1	  1000	  1000	  1000
  1712	     1	  1000	  1000	  1000
  1713	     1	  1000	  1000	  1000
  1714	     1	  1000	  1000	  1000
  1715	     1	  1000	  1000	  1000
  1716	     1	  1000	  1000	  1000
  1717	     1	  1000	  1000	  1000
  1718	     1	  1000	  1000	  1000
  1719	     1	  1000	  1000	  1000
  1720	     1	  1000	  1000	  1000
  1721	     1	  1000	  1000	  1000
  1722	     1	  1000	  1000	  1000
  1723	     1	  1000	  1000	  1000
  1724	     1	  1000	  1000	  1000
  1725	     1	  1000	  1000	  1000
  1726	     1	  1000	  1000	  1000
  1727	     1	  1000	  1000	  1000
  1728	     1	  1000	  1000	  1000
  1729	     1	  1000	  1000	  1000
  1730	     1	  1000	  1000	  1000
  1731	     1	  1000	  1000	  1000
  1732	     1	  1000	  1000	  1000
  1733	     1	  1000	  1000	  1000
  1734	     1	  1000	  1000	  1000
  1735	     1	  1000	  1000	  1000
  1736	     1	  1000	  1000	  1000
  1737	     1	  1000	  1000	  1000
  1738	     1	  1000	  1000	  1000
  1739	     1	  1000	  1000	  1000
  1740	     1	  1000	  1000	  1000
  1741	     1	  1000	  1000	  1000
  1742	     1	  1000	  1000	  1000
  1743	     1	  1000	  1000	  1000
  1744	     1	  1000	  1000	  1000
  1745	     1	  1000	  1000	  1000
  1746	     1	  1000	  1000	  1000
  1747	     1	  1000	  1000	  1000
  1748	     1	  1000	  1000	  1000
  1749	     1	  1000	  1000	  1000
  1750	     1	  1000	  1000	  1000
  1751	     1	  1000	  1000	  1000
  1752	     1	  1000	  1000	  1000
  1753	     1	  1000	  1000	  1000
  1754	     1	  1000	  1000	  1000
  1755	     1	  1000	  1000	  1000
  1756	     1	  1000	  1000	  1000
  1757	     1	  1000	  1000	  1000
  1758	     1	  1000	  1000	  1000
  1759	     1	  1000	  1000	  1000
  1760	     1	  1000	  1000	  1000
  1761	     1	  1000	  1000	  1000
  1762	     1	  1000	  1000	  1000
  1763	     1	  1000	  1000	  1000
  1764	     1	  1000	  1000	  1000
  1765	     1	  1000	  1000	  1000
  1766	     1	  1000	  1000	  1000
  1767	     1	  1000	  1000	  1000
  1768	     1	  1000	  1000	  1000
  1769	     1	  1000	  1000	  1000
  1770	     1	  1000	  1000	  1000
  1771	     1	  1000	  1000	  1000
  1772	     1	  1000	  1000	  1000
  1773	     1	  1000	  1000	  1000
  1774	     1	  1000	  1000	  1000
  1775	     1	  1000	  1000	  1000
  1776	     1	  1000	  1000	  1000
  1777	     1	  1000	  1000	  1000
  1778	     1	  1000	  1000	  1000
  1779	     1	  1000	  1000	  1000
  1780	     1	  1000	  1000	  1000
  1781	     1	  1000	  1000	  1000
  1782	     1	  1000	  1000	  1000
  1783	     1	  1000	  1000	  1000
  1784	     1	  1000	  1000	  1000
  1785	     1	  1000	  1000	  1000
  1786	     1	  1000	  1000	  1000
  1787	     1	  1000	  1000	  1000
  1788	     1	  1000	  1000	  1000
  1789	     1	  1000	  1000	  1000
  1790	     1	  1000	  1000	  1000
  1791	     1	  1000	  1000	  1000
  1792	     1	  1000	  1000	  1000
  1793	     1	  1000	  1000	  1000
  1794	     1	  1000	  1000	  1000
  1795	     1	  1000	  1000	  1000
  1796	     1	  1000	  1000	  1000
  1797	     1	  1000	  1000	  1000
  1798	     1	  1000	  1000	  1000
  1799	     1	  1000	  1000	  1000
  1800	     1	  1000	  1000	  1000
#endif 


#ifdef POSRES 
[ position_restraints ] 
; atom  type      fx      fy      fz
     1	     1	  1000	  1000	  1000
     2	     1	  1000	  1000	  1000
     3	     1	  1000	  1000	  1000
     4	     1	  1000	  1000	  1000
     5	     1	  1000	  1000	  1000
     6	     1	  1000	  1000	  1000
     7	     1	  1000	  1000	  1000
     8	     1	  1000	  1000	  1000
     9	     1	  1000	  1000	  1000
    10	     1	  1000	  1000	  1000
    11	     1	  1000	  1000	  1000
    12	     1	  1000	  1000	  1000
    13	     1	  1000	  1000	  1000
    14	     1	  1000	  1000	  1000
    15	     1	  1000	  1000	  1000
    16	     1	  1000	  1000	  1000
    17	     1	  1000	  1000	  1000
    18	     1	  1000	  1000	  1000
    19	     1	  1000	  1000	  1000
    20	     1	  1000	  1000	  1000
    21	     1	  1000	  1000	  1000
    22	     1	  1000	  1000	  1000
    23	     1	  1000	  1000	  1000
    24	     1	  1000	  1000	  1000
    25	     1	  1000	  1000	  1000
    26	     1	  1000	  1000	  1000
    27	     1	  1000	  1000	  1000
    28	     1	  1000	  1000	  1000
    29	     1	  1000	  1000	  1000
    30	     1	  1000	  1000	  1000
    31	     1	  1000	  1000	  1000
    32	     1	  1000	  1000	  1000
    33	     1	  1000	  1000	  1000
    34	     1	  1000	  1000	  1000
    35	     1	  1000	  1000	  1000
    36	     1	  1000	  1000	  1000
    37	     1	  1000	  1000	  1000
    38	     1	  1000	  1000	  1000
    39	     1	  1000	  1000	  1000
    40	     1	  1000	  1000	  1000
    41	     1	  1000	  1000	  1000
    42	     1	  1000	  1000	  1000
    43	     1	  1000	  1000	  1000
    44	     1	  1000	  1000	  1000
    45	     1	  1000	  1000	  1000
    46	     1	  1000	  1000	  1000
    47	     1	  1000	  1000	  1000
    48	     1	  1000	  1000	  1000
    49	     1	  1000	  1000	  1000
    50	     1	  1000	  1000	  1000
    51	     1	  1000	  1000	  1000
    52	     1	  1000	  1000	  1000
    53	     1	  1000	  1000	  1000
    54	     1	  1000	  1000	  1000
    55	     1	  1000	  1000	  1000
    56	     1	  1000	  1000	  1000
    57	     1	  1000	  1000	  1000
    58	     1	  1000	  1000	  1000
    59	     1	  1000	  1000	  1000
    60	     1	  1000	  1000	  1000
    61	     1	  1000	  1000	  1000
    62	     1	  1000	  1000	  1000
    63	     1	  1000	  1000	  1000
    64	     1	  1000	  1000	  1000
    65	     1	  1000	  1000	  1000
    66	     1	  1000	  1000	  1000
    67	     1	  1000	  1000	  1000
    68	     1	  1000	  1000	  1000
    69	     1	  1000	  1000	  1000
    70	     1	  1000	  1000	  1000
    71	     1	  1000	  1000	  1000
    72	     1	  1000	  1000	  1000
    73	     1	  1000	  1000	  1000
    74	     1	  1000	  1000	  1000
    75	     1	  1000	  1000	  1000
    76	     1	  1000	  1000	  1000
    77	     1	  1000	  1000	  1000
    78	     1	  1000	  1000	  1000
    79	     1	  1000	  1000	  1000
    80	     1	  1000	  1000	  1000
    81	     1	  1000	  1000	  1000
    82	     1	  1000	  1000	  1000
    83	     1	  1000	  1000	  1000
    84	     1	  1000	  1000	  1000
    85	     1	  1000	  1000	  1000
    86	     1	  1000	  1000	  1000
    87	     1	  1000	  1000	  1000
    88	     1	  1000	  1000	  1000
    89	     1	  1000	  1000	  1000
    90	     1	  1000	  1000	  1000
    91	     1	  1000	  1000	  1000
    92	     1	  1000	  1000	  1000
    93	     1	  1000	  1000	  1000
    94	     1	  1000	  1000	  1000
    95	     1	  1000	  1000	  1000
    96	     1	  1000	  1000	  1000
    97	     1	  1000	  1000	  1000
    98	     1	  1000	  1000	  1000
    99	     1	  1000	  1000	  1000
   100	     1	  1000	  1000	  1000
   101	     1	  1000	  1000	  1000
   102	     1	  1000	  1000	  1000
   103	     1	  1000	  1000	  1000
   104	     1	  1000	  1000	  1000
   105	     1	  1000	  1000	  1000
   106	     1	  1000	  1000	  1000
   107	     1	  1000	  1000	  1000
   108	     1	  1000	  1000	  1000
   109	     1	  1000	  1000	  1000
   110	     1	  1000	  1000	  1000
   111	     1	  1000	  1000	  1000
   112	     1	  1000	  1000	  1000
   113	     1	  1000	  1000	  1000
   114	     1	  1000	  1000	  1000
   115	     1	  1000	  1000	  1000
   116	     1	  1000	  1000	  1000
   117	     1	  1000	  1000	  1000
   118	     1	  1000	  1000	  1000
   119	     1	  1000	  1000	  1000
   120	     1	  1000	  1000	  1000
   121	     1	  1000	  1000	  1000
   122	     1	  1000	  1000	  1000
   123	     1	  1000	  1000	  1000
   124	     1	  1000	  1000	  1000
   125	     1	  1000	  1000	  1000
   126	     1	  1000	  1000	  1000
   127	     1	  1000	  1000	  1000
   128	     1	  1000	  1000	  1000
   129	     1	  1000	  1000	  1000
   130	     1	  1000	  1000	  1000
   131	     1	  1000	  1000	  1000
   132	     1	  1000	  1000	  1000
   133	     1	  1000	  1000	  1000
   134	     1	  1000	  1000	  1000
   135	     1	  1000	  1000	  1000
   136	     1	  1000	  1000	  1000
   137	     1	  1000	  1000	  1000
   138	     1	  1000	  1000	  1000
   139	     1	  1000	  1000	  1000
   140	     1	  1000	  1000	  1000
   141	     1	  1000	  1000	  1000
   142	     1	  1000	  1000	  1000
   143	     1	  1000	  1000	  1000
   144	     1	  1000	  1000	  1000
   145	     1	  1000	  1000	  1000
   146	     1	  1000	  1000	  1000
   147	     1	  1000	  1000	  1000
   148	     1	  1000	  1000	  1000
   149	     1	  1000	  1000	  1000
   150	     1	  1000	  1000	  1000
   151	     1	  1000	  1000	  1000
   152	     1	  1000	  1000	  1000
   153	     1	  1000	  1000	  1000
   154	     1	  1000	  1000	  1000
   155	     1	  1000	  1000	  1000
   156	     1	  1000	  1000	  1000
   157	     1	  1000	  1000	  1000
   158	     1	  1000	  1000	  1000
   159	     1	  1000	  1000	  1000
   160	     1	  1000	  1000	  1000
   161	     1	  1000	  1000	  1000
   162	     1	  1000	  1000	  1000
   163	     1	  1000	  1000	  1000
   164	     1	  1000	  1000	  1000
   165	     1	  1000	  1000	  1000
   166	     1	  1000	  1000	  1000
   167	     1	  1000	  1000	  1000
   168	     1	  1000	  1000	  1000
   169	     1	  1000	  1000	  1000
   170	     1	  1000	  1000	  1000
   171	     1	  1000	  1000	  1000
   172	     1	  1000	  1000	  1000
   173	     1	  1000	  1000	  1000
   174	     1	  1000	  1000	  1000
   175	     1	  1000	  1000	  1000
   176	     1	  1000	  1000	  1000
   177	     1	  1000	  1000	  1000
   178	     1	  1000	  1000	  1000
   179	     1	  1000	  1000	  1000
   180	     1	  1000	  1000	  1000
   181	     1	  1000	  1000	  1000
   182	     1	  1000	  1000	  1000
   183	     1	  1000	  1000	  1000
   184	     1	  1000	  1000	  1000
   185	     1	  1000	  1000	  1000
   186	     1	  1000	  1000	  1000
   187	     1	  1000	  1000	  1000
   188	     1	  1000	  1000	  1000
   189	     1	  1000	  1000	  1000
   190	     1	  1000	  1000	  1000
   191	     1	  1000	  1000	  1000
   192	     1	  1000	  1000	  1000
   193	     1	  1000	  1000	  1000
   194	     1	  1000	  1000	  1000
   195	     1	  1000	  1000	  1000
   196	     1	  1000	  1000	  1000
   197	     1	  1000	  1000	  1000
   198	     1	  1000	  1000	  1000
   199	     1	  1000	  1000	  1000
   200	     1	  1000	  1000	  1000
   201	     1	  1000	  1000	  1000
   202	     1	  1000	  1000	  1000
   203	     1	  1000	  1000	  1000
   204	     1	  1000	  1000	  1000
   205	     1	  1000	  1000	  1000
   206	     1	  1000	  1000	  1000
   207	     1	  1000	  1000	  1000
   208	     1	  1000	  1000	  1000
   209	     1	  1000	  1000	  1000
   210	     1	  1000	  1000	  1000
   211	     1	  1000	  1000	  1000
   212	     1	  1000	  1000	  1000
   213	     1	  1000	  1000	  1000
   214	     1	  1000	  1000	  1000
   215	     1	  1000	  1000	  1000
   216	     1	  1000	  1000	  1000
   217	     1	  1000	  1000	  1000
   218	     1	  1000	  1000	  1000
   219	     1	  1000	  1000	  1000
   220	     1	  1000	  1000	  1000
   221	     1	  1000	  1000	  1000
   222	     1	  1000	  1000	  1000
   223	     1	  1000	  1000	  1000
   224	     1	  1000	  1000	  1000
   225	     1	  1000	  1000	  1000
   226	     1	  1000	  1000	  1000
   227	     1	  1000	  1000	  1000
   228	     1	  1000	  1000	  1000
   229	     1	  1000	  1000	  1000
   230	     1	  1000	  1000	  1000
   231	     1	  1000	  1000	  1000
   232	     1	  1000	  1000	  1000
   233	     1	  1000	  1000	  1000
   234	     1	  1000	  1000	  1000
   235	     1	  1000	  1000	  1000
   236	     1	  1000	  1000	  1000
   237	     1	  1000	  1000	  1000
   238	     1	  1000	  1000	  1000
   239	     1	  1000	  1000	  1000
   240	     1	  1000	  1000	  1000
   241	     1	  1000	  1000	  1000
   242	     1	  1000	  1000	  1000
   243	     1	  1000	  1000	  1000
   244	     1	  1000	  1000	  1000
   245	     1	  1000	  1000	  1000
   246	     1	  1000	  1000	  1000
   247	     1	  1000	  1000	  1000
   248	     1	  1000	  1000	  1000
   249	     1	  1000	  1000	  1000
   250	     1	  1000	  1000	  1000
   251	     1	  1000	  1000	  1000
   252	     1	  1000	  1000	  1000
   253	     1	  1000	  1000	  1000
   254	     1	  1000	  1000	  1000
   255	     1	  1000	  1000	  1000
   256	     1	  1000	  1000	  1000
   257	     1	  1000	  1000	  1000
   258	     1	  1000	  1000	  1000
   259	     1	  1000	  1000	  1000
   260	     1	  1000	  1000	  1000
   261	     1	  1000	  1000	  1000
   262	     1	  1000	  1000	  1000
   263	     1	  1000	  1000	  1000
   264	     1	  1000	  1000	  1000
   265	     1	  1000	  1000	  1000
   266	     1	  1000	  1000	  1000
   267	     1	  1000	  1000	  1000
   268	     1	  1000	  1000	  1000
   269	     1	  1000	  1000	  1000
   270	     1	  1000	  1000	  1000
   271	     1	  1000	  1000	  1000
   272	     1	  1000	  1000	  1000
   273	     1	  1000	  1000	  1000
   274	     1	  1000	  1000	  1000
   275	     1	  1000	  1000	  1000
   276	     1	  1000	  1000	  1000
   277	     1	  1000	  1000	  1000
   278	     1	  1000	  1000	  1000
   279	     1	  1000	  1000	  1000
   280	     1	  1000	  1000	  1000
   281	     1	  1000	  1000	  1000
   282	     1	  1000	  1000	  1000
   283	     1	  1000	  1000	  1000
   284	     1	  1000	  1000	  1000
   285	     1	  1000	  1000	  1000
   286	     1	  1000	  1000	  1000
   287	     1	  1000	  1000	  1000
   288	     1	  1000	  1000	  1000
   289	     1	  1000	  1000	  1000
   290	     1	  1000	  1000	  1000
   291	     1	  1000	  1000	  1000
   292	     1	  1000	  1000	  1000
   293	     1	  1000	  1000	  1000
   294	     1	  1000	  1000	  1000
   295	     1	  1000	  1000	  1000
   296	     1	  1000	  1000	  1000
   297	     1	  1000	  1000	  1000
   298	     1	  1000	  1000	  1000
   299	     1	  1000	  1000	  1000
   300	     1	  1000	  1000	  1000
   301	     1	  1000	  1000	  1000
   302	     1	  1000	  1000	  1000
   303	     1	  1000	  1000	  1000
   304	     1	  1000	  1000	  1000
   305	     1	  1000	  1000	  1000
   306	     1	  1000	  1000	  1000
   307	     1	  1000	  1000	  1000
   308	     1	  1000	  1000	  1000
   309	     1	  1000	  1000	  1000
   310	     1	  1000	  1000	  1000
   311	     1	  1000	  1000	  1000
   312	     1	  1000	  1000	  1000
   313	     1	  1000	  1000	  1000
   314	     1	  1000	  1000	  1000
   315	     1	  1000	  1000	  1000
   316	     1	  1000	  1000	  1000
   317	     1	  1000	  1000	  1000
   318	     1	  1000	  1000	  1000
   319	     1	  1000	  1000	  1000
   320	     1	  1000	  1000	  1000
   321	     1	  1000	  1000	  1000
   322	     1	  1000	  1000	  1000
   323	     1	  1000	  1000	  1000
   324	     1	  1000	  1000	  1000
   325	     1	  1000	  1000	  1000
   326	     1	  1000	  1000	  1000
   327	     1	  1000	  1000	  1000
   328	     1	  1000	  1000	  1000
   329	     1	  1000	  1000	  1000
   330	     1	  1000	  1000	  1000
   331	     1	  1000	  1000	  1000
   332	     1	  1000	  1000	  1000
   333	     1	  1000	  1000	  1000
   334	     1	  1000	  1000	  1000
   335	     1	  1000	  1000	  1000
   336	     1	  1000	  1000	  1000
   337	     1	  1000	  1000	  1000
   338	     1	  1000	  1000	  1000
   339	     1	  1000	  1000	  1000
   340	     1	  1000	  1000	  1000
   341	     1	  1000	  1000	  1000
   342	     1	  1000	  1000	  1000
   343	     1	  1000	  1000	  1000
   344	     1	  1000	  1000	  1000
   345	     1	  1000	  1000	  1000
   346	     1	  1000	  1000	  1000
   347	     1	  1000	  1000	  1000
   348	     1	  1000	  1000	  1000
   349	     1	  1000	  1000	  1000
   350	     1	  1000	  1000	  1000
   351	     1	  1000	  1000	  1000
   352	     1	  1000	  1000	  1000
   353	     1	  1000	  1000	  1000
   354	     1	  1000	  1000	  1000
   355	     1	  1000	  1000	  1000
   356	     1	  1000	  1000	  1000
   357	     1	  1000	  1000	  1000
   358	     1	  1000	  1000	  1000
   359	     1	  1000	  1000	  1000
   360	     1	  1000	  1000	  1000
   361	     1	  1000	  1000	  1000
   362	     1	  1000	  1000	  1000
   363	     1	  1000	  1000	  1000
   364	     1	  1000	  1000	  1000
   365	     1	  1000	  1000	  1000
   366	     1	  1000	  1000	  1000
   367	     1	  1000	  1000	  1000
   368	     1	  1000	  1000	  1000
   369	     1	  1000	  1000	  1000
   370	     1	  1000	  1000	  1000
   371	     1	  1000	  1000	  1000
   372	     1	  1000	  1000	  1000
   373	     1	  1000	  1000	  1000
   374	     1	  1000	  1000	  1000
   375	     1	  1000	  1000	  1000
   376	     1	  1000	  1000	  1000
   377	     1	  1000	  1000	  1000
   378	     1	  1000	  1000	  1000
   379	     1	  1000	  1000	  1000
   380	     1	  1000	  1000	  1000
   381	     1	  1000	  1000	  1000
   382	     1	  1000	  1000	  1000
   383	     1	  1000	  1000	  1000
   384	     1	  1000	  1000	  1000
   385	     1	  1000	  1000	  1000
   386	     1	  1000	  1000	  1000
   387	     1	  1000	  1000	  1000
   388	     1	  1000	  1000	  1000
   389	     1	  1000	  1000	  1000
   390	     1	  1000	  1000	  1000
   391	     1	  1000	  1000	  1000
   392	     1	  1000	  1000	  1000
   393	     1	  1000	  1000	  1000
   394	     1	  1000	  1000	  1000
   395	     1	  1000	  1000	  1000
   396	     1	  1000	  1000	  1000
   397	     1	  1000	  1000	  1000
   398	     1	  1000	  1000	  1000
   399	     1	  1000	  1000	  1000
   400	     1	  1000	  1000	  1000
   401	     1	  1000	  1000	  1000
   402	     1	  1000	  1000	  1000
   403	     1	  1000	  1000	  1000
   404	     1	  1000	  1000	  1000
   405	     1	  1000	  1000	  1000
   406	     1	  1000	  1000	  1000
   407	     1	  1000	  1000	  1000
   408	     1	  1000	  1000	  1000
   409	     1	  1000	  1000	  1000
   410	     1	  1000	  1000	  1000
   411	     1	  1000	  1000	  1000
   412	     1	  1000	  1000	  1000
   413	     1	  1000	  1000	  1000
   414	     1	  1000	  1000	  1000
   415	     1	  1000	  1000	  1000
   416	     1	  1000	  1000	  1000
   417	     1	  1000	  1000	  1000
   418	     1	  1000	  1000	  1000
   419	     1	  1000	  1000	  1000
   420	     1	  1000	  1000	  1000
   421	     1	  1000	  1000	  1000
   422	     1	  1000	  1000	  1000
   423	     1	  1000	  1000	  1000
   424	     1	  1000	  1000	  1000
   425	     1	  1000	  1000	  1000
   426	     1	  1000	  1000	  1000
   427	     1	  1000	  1000	  1000
   428	     1	  1000	  1000	  1000
   429	     1	  1000	  1000	  1000
   430	     1	  1000	  1000	  1000
   431	     1	  1000	  1000	  1000
   432	     1	  1000	  1000	  1000
   433	     1	  1000	  1000	  1000
   434	     1	  1000	  1000	  1000
   435	     1	  1000	  1000	  1000
   436	     1	  1000	  1000	  1000
   437	     1	  1000	  1000	  1000
   438	     1	  1000	  1000	  1000
   439	     1	  1000	  1000	  1000
   440	     1	  1000	  1000	  1000
   441	     1	  1000	  1000	  1000
   442	     1	  1000	  1000	  1000
   443	     1	  1000	  1000	  1000
   444	     1	  1000	  1000	  1000
   445	     1	  1000	  1000	  1000
   446	     1	  1000	  1000	  1000
   447	     1	  1000	  1000	  1000
   448	     1	  1000	  1000	  1000
   449	     1	  1000	  1000	  1000
   450	     1	  1000	  1000	  1000
   451	     1	  1000	  1000	  1000
   452	     1	  1000	  1000	  1000
   453	     1	  1000	  1000	  1000
   454	     1	  1000	  1000	  1000
   455	     1	  1000	  1000	  1000
   456	     1	  1000	  1000	  1000
   457	     1	  1000	  1000	  1000
   458	     1	  1000	  1000	  1000
   459	     1	  1000	  1000	  1000
   460	     1	  1000	  1000	  1000
   461	     1	  1000	  1000	  1000
   462	     1	  1000	  1000	  1000
   463	     1	  1000	  1000	  1000
   464	     1	  1000	  1000	  1000
   465	     1	  1000	  1000	  1000
   466	     1	  1000	  1000	  1000
   467	     1	  1000	  1000	  1000
   468	     1	  1000	  1000	  1000
   469	     1	  1000	  1000	  1000
   470	     1	  1000	  1000	  1000
   471	     1	  1000	  1000	  1000
   472	     1	  1000	  1000	  1000
   473	     1	  1000	  1000	  1000
   474	     1	  1000	  1000	  1000
   475	     1	  1000	  1000	  1000
   476	     1	  1000	  1000	  1000
   477	     1	  1000	  1000	  1000
   478	     1	  1000	  1000	  1000
   479	     1	  1000	  1000	  1000
   480	     1	  1000	  1000	  1000
   481	     1	  1000	  1000	  1000
   482	     1	  1000	  1000	  1000
   483	     1	  1000	  1000	  1000
   484	     1	  1000	  1000	  1000
   485	     1	  1000	  1000	  1000
   486	     1	  1000	  1000	  1000
   487	     1	  1000	  1000	  1000
   488	     1	  1000	  1000	  1000
   489	     1	  1000	  1000	  1000
   490	     1	  1000	  1000	  1000
   491	     1	  1000	  1000	  1000
   492	     1	  1000	  1000	  1000
   493	     1	  1000	  1000	  1000
   494	     1	  1000	  1000	  1000
   495	     1	  1000	  1000	  1000
   496	     1	  1000	  1000	  1000
   497	     1	  1000	  1000	  1000
   498	     1	  1000	  1000	  1000
   499	     1	  1000	  1000	  1000
   500	     1	  1000	  1000	  1000
   501	     1	  1000	  1000	  1000
   502	     1	  1000	  1000	  1000
   503	     1	  1000	  1000	  1000
   504	     1	  1000	  1000	  1000
   505	     1	  1000	  1000	  1000
   506	     1	  1000	  1000	  1000
   507	     1	  1000	  1000	  1000
   508	     1	  1000	  1000	  1000
   509	     1	  1000	  1000	  1000
   510	     1	  1000	  1000	  1000
   511	     1	  1000	  1000	  1000
   512	     1	  1000	  1000	  1000
   513	     1	  1000	  1000	  1000
   514	     1	  1000	  1000	  1000
   515	     1	  1000	  1000	  1000
   516	     1	  1000	  1000	  1000
   517	     1	  1000	  1000	  1000
   518	     1	  1000	  1000	  1000
   519	     1	  1000	  1000	  1000
   520	     1	  1000	  1000	  1000
   521	     1	  1000	  1000	  1000
   522	     1	  1000	  1000	  1000
   523	     1	  1000	  1000	  1000
   524	     1	  1000	  1000	  1000
   525	     1	  1000	  1000	  1000
   526	     1	  1000	  1000	  1000
   527	     1	  1000	  1000	  1000
   528	     1	  1000	  1000	  1000
   529	     1	  1000	  1000	  1000
   530	     1	  1000	  1000	  1000
   531	     1	  1000	  1000	  1000
   532	     1	  1000	  1000	  1000
   533	     1	  1000	  1000	  1000
   534	     1	  1000	  1000	  1000
   535	     1	  1000	  1000	  1000
   536	     1	  1000	  1000	  1000
   537	     1	  1000	  1000	  1000
   538	     1	  1000	  1000	  1000
   539	     1	  1000	  1000	  1000
   540	     1	  1000	  1000	  1000
   541	     1	  1000	  1000	  1000
   542	     1	  1000	  1000	  1000
   543	     1	  1000	  1000	  1000
   544	     1	  1000	  1000	  1000
   545	     1	  1000	  1000	  1000
   546	     1	  1000	  1000	  1000
   547	     1	  1000	  1000	  1000
   548	     1	  1000	  1000	  1000
   549	     1	  1000	  1000	  1000
   550	     1	  1000	  1000	  1000
   551	     1	  1000	  1000	  1000
   552	     1	  1000	  1000	  1000
   553	     1	  1000	  1000	  1000
   554	     1	  1000	  1000	  1000
   555	     1	  1000	  1000	  1000
   556	     1	  1000	  1000	  1000
   557	     1	  1000	  1000	  1000
   558	     1	  1000	  1000	  1000
   559	     1	  1000	  1000	  1000
   560	     1	  1000	  1000	  1000
   561	     1	  1000	  1000	  1000
   562	     1	  1000	  1000	  1000
   563	     1	  1000	  1000	  1000
   564	     1	  1000	  1000	  1000
   565	     1	  1000	  1000	  1000
   566	     1	  1000	  1000	  1000
   567	     1	  1000	  1000	  1000
   568	     1	  1000	  1000	  1000
   569	     1	  1000	  1000	  1000
   570	     1	  1000	  1000	  1000
   571	     1	  1000	  1000	  1000
   572	     1	  1000	  1000	  1000
   573	     1	  1000	  1000	  1000
   574	     1	  1000	  1000	  1000
   575	     1	  1000	  1000	  1000
   576	     1	  1000	  1000	  1000
   577	     1	  1000	  1000	  1000
   578	     1	  1000	  1000	  1000
   579	     1	  1000	  1000	  1000
   580	     1	  1000	  1000	  1000
   581	     1	  1000	  1000	  1000
   582	     1	  1000	  1000	  1000
   583	     1	  1000	  1000	  1000
   584	     1	  1000	  1000	  1000
   585	     1	  1000	  1000	  1000
   586	     1	  1000	  1000	  1000
   587	     1	  1000	  1000	  1000
   588	     1	  1000	  1000	  1000
   589	     1	  1000	  1000	  1000
   590	     1	  1000	  1000	  1000
   591	     1	  1000	  1000	  1000
   592	     1	  1000	  1000	  1000
   593	     1	  1000	  1000	  1000
   594	     1	  1000	  1000	  1000
   595	     1	  1000	  1000	  1000
   596	     1	  1000	  1000	  1000
   597	     1	  1000	  1000	  1000
   598	     1	  1000	  1000	  1000
   599	     1	  1000	  1000	  1000
   600	     1	  1000	  1000	  1000
   601	     1	  1000	  1000	  1000
   602	     1	  1000	  1000	  1000
   603	     1	  1000	  1000	  1000
   604	     1	  1000	  1000	  1000
   605	     1	  1000	  1000	  1000
   606	     1	  1000	  1000	  1000
   607	     1	  1000	  1000	  1000
   608	     1	  1000	  1000	  1000
   609	     1	  1000	  1000	  1000
   610	     1	  1000	  1000	  1000
   611	     1	  1000	  1000	  1000
   612	     1	  1000	  1000	  1000
   613	     1	  1000	  1000	  1000
   614	     1	  1000	  1000	  1000
   615	     1	  1000	  1000	  1000
   616	     1	  1000	  1000	  1000
   617	     1	  1000	  1000	  1000
   618	     1	  1000	  1000	  1000
   619	     1	  1000	  1000	  1000
   620	     1	  1000	  1000	  1000
   621	     1	  1000	  1000	  1000
   622	     1	  1000	  1000	  1000
   623	     1	  1000	  1000	  1000
   624	     1	  1000	  1000	  1000
   625	     1	  1000	  1000	  1000
   626	     1	  1000	  1000	  1000
   627	     1	  1000	  1000	  1000
   628	     1	  1000	  1000	  1000
   629	     1	  1000	  1000	  1000
   630	     1	  1000	  1000	  1000
   631	     1	  1000	  1000	  1000
   632	     1	  1000	  1000	  1000
   633	     1	  1000	  1000	  1000
   634	     1	  1000	  1000	  1000
   635	     1	  1000	  1000	  1000
   636	     1	  1000	  1000	  1000
   637	     1	  1000	  1000	  1000
   638	     1	  1000	  1000	  1000
   639	     1	  1000	  1000	  1000
   640	     1	  1000	  1000	  1000
   641	     1	  1000	  1000	  1000
   642	     1	  1000	  1000	  1000
   643	     1	  1000	  1000	  1000
   644	     1	  1000	  1000	  1000
   645	     1	  1000	  1000	  1000
   646	     1	  1000	  1000	  1000
   647	     1	  1000	  1000	  1000
   648	     1	  1000	  1000	  1000
   649	     1	  1000	  1000	  1000
   650	     1	  1000	  1000	  1000
   651	     1	  1000	  1000	  1000
   652	     1	  1000	  1000	  1000
   653	     1	  1000	  1000	  1000
   654	     1	  1000	  1000	  1000
   655	     1	  1000	  1000	  1000
   656	     1	  1000	  1000	  1000
   657	     1	  1000	  1000	  1000
   658	     1	  1000	  1000	  1000
   659	     1	  1000	  1000	  1000
   660	     1	  1000	  1000	  1000
   661	     1	  1000	  1000	  1000
   662	     1	  1000	  1000	  1000
   663	     1	  1000	  1000	  1000
   664	     1	  1000	  1000	  1000
   665	     1	  1000	  1000	  1000
   666	     1	  1000	  1000	  1000
   667	     1	  1000	  1000	  1000
   668	     1	  1000	  1000	  1000
   669	     1	  1000	  1000	  1000
   670	     1	  1000	  1000	  1000
   671	     1	  1000	  1000	  1000
   672	     1	  1000	  1000	  1000
   673	     1	  1000	  1000	  1000
   674	     1	  1000	  1000	  1000
   675	     1	  1000	  1000	  1000
   676	     1	  1000	  1000	  1000
   677	     1	  1000	  1000	  1000
   678	     1	  1000	  1000	  1000
   679	     1	  1000	  1000	  1000
   680	     1	  1000	  1000	  1000
   681	     1	  1000	  1000	  1000
   682	     1	  1000	  1000	  1000
   683	     1	  1000	  1000	  1000
   684	     1	  1000	  1000	  1000
   685	     1	  1000	  1000	  1000
   686	     1	  1000	  1000	  1000
   687	     1	  1000	  1000	  1000
   688	     1	  1000	  1000	  1000
   689	     1	  1000	  1000	  1000
   690	     1	  1000	  1000	  1000
   691	     1	  1000	  1000	  1000
   692	     1	  1000	  1000	  1000
   693	     1	  1000	  1000	  1000
   694	     1	  1000	  1000	  1000
   695	     1	  1000	  1000	  1000
   696	     1	  1000	  1000	  1000
   697	     1	  1000	  1000	  1000
   698	     1	  1000	  1000	  1000
   699	     1	  1000	  1000	  1000
   700	     1	  1000	  1000	  1000
   701	     1	  1000	  1000	  1000
   702	     1	  1000	  1000	  1000
   703	     1	  1000	  1000	  1000
   704	     1	  1000	  1000	  1000
   705	     1	  1000	  1000	  1000
   706	     1	  1000	  1000	  1000
   707	     1	  1000	  1000	  1000
   708	     1	  1000	  1000	  1000
   709	     1	  1000	  1000	  1000
   710	     1	  1000	  1000	  1000
   711	     1	  1000	  1000	  1000
   712	     1	  1000	  1000	  1000
   713	     1	  1000	  1000	  1000
   714	     1	  1000	  1000	  1000
   715	     1	  1000	  1000	  1000
   716	     1	  1000	  1000	  1000
   717	     1	  1000	  1000	  1000
   718	     1	  1000	  1000	  1000
   719	     1	  1000	  1000	  1000
   720	     1	  1000	  1000	  1000
   721	     1	  1000	  1000	  1000
   722	     1	  1000	  1000	  1000
   723	     1	  1000	  1000	  1000
   724	     1	  1000	  1000	  1000
   725	     1	  1000	  1000	  1000
   726	     1	  1000	  1000	  1000
   727	     1	  1000	  1000	  1000
   728	     1	  1000	  1000	  1000
   729	     1	  1000	  1000	  1000
   730	     1	  1000	  1000	  1000
   731	     1	  1000	  1000	  1000
   732	     1	  1000	  1000	  1000
   733	     1	  1000	  1000	  1000
   734	     1	  1000	  1000	  1000
   735	     1	  1000	  1000	  1000
   736	     1	  1000	  1000	  1000
   737	     1	  1000	  1000	  1000
   738	     1	  1000	  1000	  1000
   739	     1	  1000	  1000	  1000
   740	     1	  1000	  1000	  1000
   741	     1	  1000	  1000	  1000
   742	     1	  1000	  1000	  1000
   743	     1	  1000	  1000	  1000
   744	     1	  1000	  1000	  1000
   745	     1	  1000	  1000	  1000
   746	     1	  1000	  1000	  1000
   747	     1	  1000	  1000	  1000
   748	     1	  1000	  1000	  1000
   749	     1	  1000	  1000	  1000
   750	     1	  1000	  1000	  1000
   751	     1	  1000	  1000	  1000
   752	     1	  1000	  1000	  1000
   753	     1	  1000	  1000	  1000
   754	     1	  1000	  1000	  1000
   755	     1	  1000	  1000	  1000
   756	     1	  1000	  1000	  1000
   757	     1	  1000	  1000	  1000
   758	     1	  1000	  1000	  1000
   759	     1	  1000	  1000	  1000
   760	     1	  1000	  1000	  1000
   761	     1	  1000	  1000	  1000
   762	     1	  1000	  1000	  1000
   763	     1	  1000	  1000	  1000
   764	     1	  1000	  1000	  1000
   765	     1	  1000	  1000	  1000
   766	     1	  1000	  1000	  1000
   767	     1	  1000	  1000	  1000
   768	     1	  1000	  1000	  1000
   769	     1	  1000	  1000	  1000
   770	     1	  1000	  1000	  1000
   771	     1	  1000	  1000	  1000
   772	     1	  1000	  1000	  1000
   773	     1	  1000	  1000	  1000
   774	     1	  1000	  1000	  1000
   775	     1	  1000	  1000	  1000
   776	     1	  1000	  1000	  1000
   777	     1	  1000	  1000	  1000
   778	     1	  1000	  1000	  1000
   779	     1	  1000	  1000	  1000
   780	     1	  1000	  1000	  1000
   781	     1	  1000	  1000	  1000
   782	     1	  1000	  1000	  1000
   783	     1	  1000	  1000	  1000
   784	     1	  1000	  1000	  1000
   785	     1	  1000	  1000	  1000
   786	     1	  1000	  1000	  1000
   787	     1	  1000	  1000	  1000
   788	     1	  1000	  1000	  1000
   789	     1	  1000	  1000	  1000
   790	     1	  1000	  1000	  1000
   791	     1	  1000	  1000	  1000
   792	     1	  1000	  1000	  1000
   793	     1	  1000	  1000	  1000
   794	     1	  1000	  1000	  1000
   795	     1	  1000	  1000	  1000
   796	     1	  1000	  1000	  1000
   797	     1	  1000	  1000	  1000
   798	     1	  1000	  1000	  1000
   799	     1	  1000	  1000	  1000
   800	     1	  1000	  1000	  1000
   801	     1	  1000	  1000	  1000
   802	     1	  1000	  1000	  1000
   803	     1	  1000	  1000	  1000
   804	     1	  1000	  1000	  1000
   805	     1	  1000	  1000	  1000
   806	     1	  1000	  1000	  1000
   807	     1	  1000	  1000	  1000
   808	     1	  1000	  1000	  1000
   809	     1	  1000	  1000	  1000
   810	     1	  1000	  1000	  1000
   811	     1	  1000	  1000	  1000
   812	     1	  1000	  1000	  1000
   813	     1	  1000	  1000	  1000
   814	     1	  1000	  1000	  1000
   815	     1	  1000	  1000	  1000
   816	     1	  1000	  1000	  1000
   817	     1	  1000	  1000	  1000
   818	     1	  1000	  1000	  1000
   819	     1	  1000	  1000	  1000
   820	     1	  1000	  1000	  1000
   821	     1	  1000	  1000	  1000
   822	     1	  1000	  1000	  1000
   823	     1	  1000	  1000	  1000
   824	     1	  1000	  1000	  1000
   825	     1	  1000	  1000	  1000
   826	     1	  1000	  1000	  1000
   827	     1	  1000	  1000	  1000
   828	     1	  1000	  1000	  1000
   829	     1	  1000	  1000	  1000
   830	     1	  1000	  1000	  1000
   831	     1	  1000	  1000	  1000
   832	     1	  1000	  1000	  1000
   833	     1	  1000	  1000	  1000
   834	     1	  1000	  1000	  1000
   835	     1	  1000	  1000	  1000
   836	     1	  1000	  1000	  1000
   837	     1	  1000	  1000	  1000
   838	     1	  1000	  1000	  1000
   839	     1	  1000	  1000	  1000
   840	     1	  1000	  1000	  1000
   841	     1	  1000	  1000	  1000
   842	     1	  1000	  1000	  1000
   843	     1	  1000	  1000	  1000
   844	     1	  1000	  1000	  1000
   845	     1	  1000	  1000	  1000
   846	     1	  1000	  1000	  1000
   847	     1	  1000	  1000	  1000
   848	     1	  1000	  1000	  1000
   849	     1	  1000	  1000	  1000
   850	     1	  1000	  1000	  1000
   851	     1	  1000	  1000	  1000
   852	     1	  1000	  1000	  1000
   853	     1	  1000	  1000	  1000
   854	     1	  1000	  1000	  1000
   855	     1	  1000	  1000	  1000
   856	     1	  1000	  1000	  1000
   857	     1	  1000	  1000	  1000
   858	     1	  1000	  1000	  1000
   859	     1	  1000	  1000	  1000
   860	     1	  1000	  1000	  1000
   861	     1	  1000	  1000	  1000
   862	     1	  1000	  1000	  1000
   863	     1	  1000	  1000	  1000
   864	     1	  1000	  1000	  1000
   865	     1	  1000	  1000	  1000
   866	     1	  1000	  1000	  1000
   867	     1	  1000	  1000	  1000
   868	     1	  1000	  1000	  1000
   869	     1	  1000	  1000	  1000
   870	     1	  1000	  1000	  1000
   871	     1	  1000	  1000	  1000
   872	     1	  1000	  1000	  1000
   873	     1	  1000	  1000	  1000
   874	     1	  1000	  1000	  1000
   875	     1	  1000	  1000	  1000
   876	     1	  1000	  1000	  1000
   877	     1	  1000	  1000	  1000
   878	     1	  1000	  1000	  1000
   879	     1	  1000	  1000	  1000
   880	     1	  1000	  1000	  1000
   881	     1	  1000	  1000	  1000
   882	     1	  1000	  1000	  1000
   883	     1	  1000	  1000	  1000
   884	     1	  1000	  1000	  1000
   885	     1	  1000	  1000	  1000
   886	     1	  1000	  1000	  1000
   887	     1	  1000	  1000	  1000
   888	     1	  1000	  1000	  1000
   889	     1	  1000	  1000	  1000
   890	     1	  1000	  1000	  1000
   891	     1	  1000	  1000	  1000
   892	     1	  1000	  1000	  1000
   893	     1	  1000	  1000	  1000
   894	     1	  1000	  1000	  1000
   895	     1	  1000	  1000	  1000
   896	     1	  1000	  1000	  1000
   897	     1	  1000	  1000	  1000
   898	     1	  1000	  1000	  1000
   899	     1	  1000	  1000	  1000
   900	     1	  1000	  1000	  1000
   901	     1	  1000	  1000	  1000
   902	     1	  1000	  1000	  1000
   903	     1	  1000	  1000	  1000
   904	     1	  1000	  1000	  1000
   905	     1	  1000	  1000	  1000
   906	     1	  1000	  1000	  1000
   907	     1	  1000	  1000	  1000
   908	     1	  1000	  1000	  1000
   909	     1	  1000	  1000	  1000
   910	     1	  1000	  1000	  1000
   911	     1	  1000	  1000	  1000
   912	     1	  1000	  1000	  1000
   913	     1	  1000	  1000	  1000
   914	     1	  1000	  1000	  1000
   915	     1	  1000	  1000	  1000
   916	     1	  1000	  1000	  1000
   917	     1	  1000	  1000	  1000
   918	     1	  1000	  1000	  1000
   919	     1	  1000	  1000	  1000
   920	     1	  1000	  1000	  1000
   921	     1	  1000	  1000	  1000
   922	     1	  1000	  1000	  1000
   923	     1	  1000	  1000	  1000
   924	     1	  1000	  1000	  1000
   925	     1	  1000	  1000	  1000
   926	     1	  1000	  1000	  1000
   927	     1	  1000	  1000	  1000
   928	     1	  1000	  1000	  1000
   929	     1	  1000	  1000	  1000
   930	     1	  1000	  1000	  1000
   931	     1	  1000	  1000	  1000
   932	     1	  1000	  1000	  1000
   933	     1	  1000	  1000	  1000
   934	     1	  1000	  1000	  1000
   935	     1	  1000	  1000	  1000
   936	     1	  1000	  1000	  1000
   937	     1	  1000	  1000	  1000
   938	     1	  1000	  1000	  1000
   939	     1	  1000	  1000	  1000
   940	     1	  1000	  1000	  1000
   941	     1	  1000	  1000	  1000
   942	     1	  1000	  1000	  1000
   943	     1	  1000	  1000	  1000
   944	     1	  1000	  1000	  1000
   945	     1	  1000	  1000	  1000
   946	     1	  1000	  1000	  1000
   947	     1	  1000	  1000	  1000
   948	     1	  1000	  1000	  1000
   949	     1	  1000	  1000	  1000
   950	     1	  1000	  1000	  1000
   951	     1	  1000	  1000	  1000
   952	     1	  1000	  1000	  1000
   953	     1	  1000	  1000	  1000
   954	     1	  1000	  1000	  1000
   955	     1	  1000	  1000	  1000
   956	     1	  1000	  1000	  1000
   957	     1	  1000	  1000	  1000
   958	     1	  1000	  1000	  1000
   959	     1	  1000	  1000	  1000
   960	     1	  1000	  1000	  1000
   961	     1	  1000	  1000	  1000
   962	     1	  1000	  1000	  1000
   963	     1	  1000	  1000	  1000
   964	     1	  1000	  1000	  1000
   965	     1	  1000	  1000	  1000
   966	     1	  1000	  1000	  1000
   967	     1	  1000	  1000	  1000
   968	     1	  1000	  1000	  1000
   969	     1	  1000	  1000	  1000
   970	     1	  1000	  1000	  1000
   971	     1	  1000	  1000	  1000
   972	     1	  1000	  1000	  1000
   973	     1	  1000	  1000	  1000
   974	     1	  1000	  1000	  1000
   975	     1	  1000	  1000	  1000
   976	     1	  1000	  1000	  1000
   977	     1	  1000	  1000	  1000
   978	     1	  1000	  1000	  1000
   979	     1	  1000	  1000	  1000
   980	     1	  1000	  1000	  1000
   981	     1	  1000	  1000	  1000
   982	     1	  1000	  1000	  1000
   983	     1	  1000	  1000	  1000
   984	     1	  1000	  1000	  1000
   985	     1	  1000	  1000	  1000
   986	     1	  1000	  1000	  1000
   987	     1	  1000	  1000	  1000
   988	     1	  1000	  1000	  1000
   989	     1	  1000	  1000	  1000
   990	     1	  1000	  1000	  1000
   991	     1	  1000	  1000	  1000
   992	     1	  1000	  1000	  1000
   993	     1	  1000	  1000	  1000
   994	     1	  1000	  1000	  1000
   995	     1	  1000	  1000	  1000
   996	     1	  1000	  1000	  1000
   997	     1	  1000	  1000	  1000
   998	     1	  1000	  1000	  1000
   999	     1	  1000	  1000	  1000
  1000	     1	  1000	  1000	  1000
  1001	     1	  1000	  1000	  1000
  1002	     1	  1000	  1000	  1000
  1003	     1	  1000	  1000	  1000
  1004	     1	  1000	  1000	  1000
  1005	     1	  1000	  1000	  1000
  1006	     1	  1000	  1000	  1000
  1007	     1	  1000	  1000	  1000
  1008	     1	  1000	  1000	  1000
  1009	     1	  1000	  1000	  1000
  1010	     1	  1000	  1000	  1000
  1011	     1	  1000	  1000	  1000
  1012	     1	  1000	  1000	  1000
  1013	     1	  1000	  1000	  1000
  1014	     1	  1000	  1000	  1000
  1015	     1	  1000	  1000	  1000
  1016	     1	  1000	  1000	  1000
  1017	     1	  1000	  1000	  1000
  1018	     1	  1000	  1000	  1000
  1019	     1	  1000	  1000	  1000
  1020	     1	  1000	  1000	  1000
  1021	     1	  1000	  1000	  1000
  1022	     1	  1000	  1000	  1000
  1023	     1	  1000	  1000	  1000
  1024	     1	  1000	  1000	  1000
  1025	     1	  1000	  1000	  1000
  1026	     1	  1000	  1000	  1000
  1027	     1	  1000	  1000	  1000
  1028	     1	  1000	  1000	  1000
  1029	     1	  1000	  1000	  1000
  1030	     1	  1000	  1000	  1000
  1031	     1	  1000	  1000	  1000
  1032	     1	  1000	  1000	  1000
  1033	     1	  1000	  1000	  1000
  1034	     1	  1000	  1000	  1000
  1035	     1	  1000	  1000	  1000
  1036	     1	  1000	  1000	  1000
  1037	     1	  1000	  1000	  1000
  1038	     1	  1000	  1000	  1000
  1039	     1	  1000	  1000	  1000
  1040	     1	  1000	  1000	  1000
  1041	     1	  1000	  1000	  1000
  1042	     1	  1000	  1000	  1000
  1043	     1	  1000	  1000	  1000
  1044	     1	  1000	  1000	  1000
  1045	     1	  1000	  1000	  1000
  1046	     1	  1000	  1000	  1000
  1047	     1	  1000	  1000	  1000
  1048	     1	  1000	  1000	  1000
  1049	     1	  1000	  1000	  1000
  1050	     1	  1000	  1000	  1000
  1051	     1	  1000	  1000	  1000
  1052	     1	  1000	  1000	  1000
  1053	     1	  1000	  1000	  1000
  1054	     1	  1000	  1000	  1000
  1055	     1	  1000	  1000	  1000
  1056	     1	  1000	  1000	  1000
  1057	     1	  1000	  1000	  1000
  1058	     1	  1000	  1000	  1000
  1059	     1	  1000	  1000	  1000
  1060	     1	  1000	  1000	  1000
  1061	     1	  1000	  1000	  1000
  1062	     1	  1000	  1000	  1000
  1063	     1	  1000	  1000	  1000
  1064	     1	  1000	  1000	  1000
  1065	     1	  1000	  1000	  1000
  1066	     1	  1000	  1000	  1000
  1067	     1	  1000	  1000	  1000
  1068	     1	  1000	  1000	  1000
  1069	     1	  1000	  1000	  1000
  1070	     1	  1000	  1000	  1000
  1071	     1	  1000	  1000	  1000
  1072	     1	  1000	  1000	  1000
  1073	     1	  1000	  1000	  1000
  1074	     1	  1000	  1000	  1000
  1075	     1	  1000	  1000	  1000
  1076	     1	  1000	  1000	  1000
  1077	     1	  1000	  1000	  1000
  1078	     1	  1000	  1000	  1000
  1079	     1	  1000	  1000	  1000
  1080	     1	  1000	  1000	  1000
  1081	     1	  1000	  1000	  1000
  1082	     1	  1000	  1000	  1000
  1083	     1	  1000	  1000	  1000
  1084	     1	  1000	  1000	  1000
  1085	     1	  1000	  1000	  1000
  1086	     1	  1000	  1000	  1000
  1087	     1	  1000	  1000	  1000
  1088	     1	  1000	  1000	  1000
  1089	     1	  1000	  1000	  1000
  1090	     1	  1000	  1000	  1000
  1091	     1	  1000	  1000	  1000
  1092	     1	  1000	  1000	  1000
  1093	     1	  1000	  1000	  1000
  1094	     1	  1000	  1000	  1000
  1095	     1	  1000	  1000	  1000
  1096	     1	  1000	  1000	  1000
  1097	     1	  1000	  1000	  1000
  1098	     1	  1000	  1000	  1000
  1099	     1	  1000	  1000	  1000
  1100	     1	  1000	  1000	  1000
  1101	     1	  1000	  1000	  1000
  1102	     1	  1000	  1000	  1000
  1103	     1	  1000	  1000	  1000
  1104	     1	  1000	  1000	  1000
  1105	     1	  1000	  1000	  1000
  1106	     1	  1000	  1000	  1000
  1107	     1	  1000	  1000	  1000
  1108	     1	  1000	  1000	  1000
  1109	     1	  1000	  1000	  1000
  1110	     1	  1000	  1000	  1000
  1111	     1	  1000	  1000	  1000
  1112	     1	  1000	  1000	  1000
  1113	     1	  1000	  1000	  1000
  1114	     1	  1000	  1000	  1000
  1115	     1	  1000	  1000	  1000
  1116	     1	  1000	  1000	  1000
  1117	     1	  1000	  1000	  1000
  1118	     1	  1000	  1000	  1000
  1119	     1	  1000	  1000	  1000
  1120	     1	  1000	  1000	  1000
  1121	     1	  1000	  1000	  1000
  1122	     1	  1000	  1000	  1000
  1123	     1	  1000	  1000	  1000
  1124	     1	  1000	  1000	  1000
  1125	     1	  1000	  1000	  1000
  1126	     1	  1000	  1000	  1000
  1127	     1	  1000	  1000	  1000
  1128	     1	  1000	  1000	  1000
  1129	     1	  1000	  1000	  1000
  1130	     1	  1000	  1000	  1000
  1131	     1	  1000	  1000	  1000
  1132	     1	  1000	  1000	  1000
  1133	     1	  1000	  1000	  1000
  1134	     1	  1000	  1000	  1000
  1135	     1	  1000	  1000	  1000
  1136	     1	  1000	  1000	  1000
  1137	     1	  1000	  1000	  1000
  1138	     1	  1000	  1000	  1000
  1139	     1	  1000	  1000	  1000
  1140	     1	  1000	  1000	  1000
  1141	     1	  1000	  1000	  1000
  1142	     1	  1000	  1000	  1000
  1143	     1	  1000	  1000	  1000
  1144	     1	  1000	  1000	  1000
  1145	     1	  1000	  1000	  1000
  1146	     1	  1000	  1000	  1000
  1147	     1	  1000	  1000	  1000
  1148	     1	  1000	  1000	  1000
  1149	     1	  1000	  1000	  1000
  1150	     1	  1000	  1000	  1000
  1151	     1	  1000	  1000	  1000
  1152	     1	  1000	  1000	  1000
  1153	     1	  1000	  1000	  1000
  1154	     1	  1000	  1000	  1000
  1155	     1	  1000	  1000	  1000
  1156	     1	  1000	  1000	  1000
  1157	     1	  1000	  1000	  1000
  1158	     1	  1000	  1000	  1000
  1159	     1	  1000	  1000	  1000
  1160	     1	  1000	  1000	  1000
  1161	     1	  1000	  1000	  1000
  1162	     1	  1000	  1000	  1000
  1163	     1	  1000	  1000	  1000
  1164	     1	  1000	  1000	  1000
  1165	     1	  1000	  1000	  1000
  1166	     1	  1000	  1000	  1000
  1167	     1	  1000	  1000	  1000
  1168	     1	  1000	  1000	  1000
  1169	     1	  1000	  1000	  1000
  1170	     1	  1000	  1000	  1000
  1171	     1	  1000	  1000	  1000
  1172	     1	  1000	  1000	  1000
  1173	     1	  1000	  1000	  1000
  1174	     1	  1000	  1000	  1000
  1175	     1	  1000	  1000	  1000
  1176	     1	  1000	  1000	  1000
  1177	     1	  1000	  1000	  1000
  1178	     1	  1000	  1000	  1000
  1179	     1	  1000	  1000	  1000
  1180	     1	  1000	  1000	  1000
  1181	     1	  1000	  1000	  1000
  1182	     1	  1000	  1000	  1000
  1183	     1	  1000	  1000	  1000
  1184	     1	  1000	  1000	  1000
  1185	     1	  1000	  1000	  1000
  1186	     1	  1000	  1000	  1000
  1187	     1	  1000	  1000	  1000
  1188	     1	  1000	  1000	  1000
  1189	     1	  1000	  1000	  1000
  1190	     1	  1000	  1000	  1000
  1191	     1	  1000	  1000	  1000
  1192	     1	  1000	  1000	  1000
  1193	     1	  1000	  1000	  1000
  1194	     1	  1000	  1000	  1000
  1195	     1	  1000	  1000	  1000
  1196	     1	  1000	  1000	  1000
  1197	     1	  1000	  1000	  1000
  1198	     1	  1000	  1000	  1000
  1199	     1	  1000	  1000	  1000
  1200	     1	  1000	  1000	  1000
  1201	     1	  1000	  1000	  1000
  1202	     1	  1000	  1000	  1000
  1203	     1	  1000	  1000	  1000
  1204	     1	  1000	  1000	  1000
  1205	     1	  1000	  1000	  1000
  1206	     1	  1000	  1000	  1000
  1207	     1	  1000	  1000	  1000
  1208	     1	  1000	  1000	  1000
  1209	     1	  1000	  1000	  1000
  1210	     1	  1000	  1000	  1000
  1211	     1	  1000	  1000	  1000
  1212	     1	  1000	  1000	  1000
  1213	     1	  1000	  1000	  1000
  1214	     1	  1000	  1000	  1000
  1215	     1	  1000	  1000	  1000
  1216	     1	  1000	  1000	  1000
  1217	     1	  1000	  1000	  1000
  1218	     1	  1000	  1000	  1000
  1219	     1	  1000	  1000	  1000
  1220	     1	  1000	  1000	  1000
  1221	     1	  1000	  1000	  1000
  1222	     1	  1000	  1000	  1000
  1223	     1	  1000	  1000	  1000
  1224	     1	  1000	  1000	  1000
  1225	     1	  1000	  1000	  1000
  1226	     1	  1000	  1000	  1000
  1227	     1	  1000	  1000	  1000
  1228	     1	  1000	  1000	  1000
  1229	     1	  1000	  1000	  1000
  1230	     1	  1000	  1000	  1000
  1231	     1	  1000	  1000	  1000
  1232	     1	  1000	  1000	  1000
  1233	     1	  1000	  1000	  1000
  1234	     1	  1000	  1000	  1000
  1235	     1	  1000	  1000	  1000
  1236	     1	  1000	  1000	  1000
  1237	     1	  1000	  1000	  1000
  1238	     1	  1000	  1000	  1000
  1239	     1	  1000	  1000	  1000
  1240	     1	  1000	  1000	  1000
  1241	     1	  1000	  1000	  1000
  1242	     1	  1000	  1000	  1000
  1243	     1	  1000	  1000	  1000
  1244	     1	  1000	  1000	  1000
  1245	     1	  1000	  1000	  1000
  1246	     1	  1000	  1000	  1000
  1247	     1	  1000	  1000	  1000
  1248	     1	  1000	  1000	  1000
  1249	     1	  1000	  1000	  1000
  1250	     1	  1000	  1000	  1000
  1251	     1	  1000	  1000	  1000
  1252	     1	  1000	  1000	  1000
  1253	     1	  1000	  1000	  1000
  1254	     1	  1000	  1000	  1000
  1255	     1	  1000	  1000	  1000
  1256	     1	  1000	  1000	  1000
  1257	     1	  1000	  1000	  1000
  1258	     1	  1000	  1000	  1000
  1259	     1	  1000	  1000	  1000
  1260	     1	  1000	  1000	  1000
  1261	     1	  1000	  1000	  1000
  1262	     1	  1000	  1000	  1000
  1263	     1	  1000	  1000	  1000
  1264	     1	  1000	  1000	  1000
  1265	     1	  1000	  1000	  1000
  1266	     1	  1000	  1000	  1000
  1267	     1	  1000	  1000	  1000
  1268	     1	  1000	  1000	  1000
  1269	     1	  1000	  1000	  1000
  1270	     1	  1000	  1000	  1000
  1271	     1	  1000	  1000	  1000
  1272	     1	  1000	  1000	  1000
  1273	     1	  1000	  1000	  1000
  1274	     1	  1000	  1000	  1000
  1275	     1	  1000	  1000	  1000
  1276	     1	  1000	  1000	  1000
  1277	     1	  1000	  1000	  1000
  1278	     1	  1000	  1000	  1000
  1279	     1	  1000	  1000	  1000
  1280	     1	  1000	  1000	  1000
  1281	     1	  1000	  1000	  1000
  1282	     1	  1000	  1000	  1000
  1283	     1	  1000	  1000	  1000
  1284	     1	  1000	  1000	  1000
  1285	     1	  1000	  1000	  1000
  1286	     1	  1000	  1000	  1000
  1287	     1	  1000	  1000	  1000
  1288	     1	  1000	  1000	  1000
  1289	     1	  1000	  1000	  1000
  1290	     1	  1000	  1000	  1000
  1291	     1	  1000	  1000	  1000
  1292	     1	  1000	  1000	  1000
  1293	     1	  1000	  1000	  1000
  1294	     1	  1000	  1000	  1000
  1295	     1	  1000	  1000	  1000
  1296	     1	  1000	  1000	  1000
  1297	     1	  1000	  1000	  1000
  1298	     1	  1000	  1000	  1000
  1299	     1	  1000	  1000	  1000
  1300	     1	  1000	  1000	  1000
  1301	     1	  1000	  1000	  1000
  1302	     1	  1000	  1000	  1000
  1303	     1	  1000	  1000	  1000
  1304	     1	  1000	  1000	  1000
  1305	     1	  1000	  1000	  1000
  1306	     1	  1000	  1000	  1000
  1307	     1	  1000	  1000	  1000
  1308	     1	  1000	  1000	  1000
  1309	     1	  1000	  1000	  1000
  1310	     1	  1000	  1000	  1000
  1311	     1	  1000	  1000	  1000
  1312	     1	  1000	  1000	  1000
  1313	     1	  1000	  1000	  1000
  1314	     1	  1000	  1000	  1000
  1315	     1	  1000	  1000	  1000
  1316	     1	  1000	  1000	  1000
  1317	     1	  1000	  1000	  1000
  1318	     1	  1000	  1000	  1000
  1319	     1	  1000	  1000	  1000
  1320	     1	  1000	  1000	  1000
  1321	     1	  1000	  1000	  1000
  1322	     1	  1000	  1000	  1000
  1323	     1	  1000	  1000	  1000
  1324	     1	  1000	  1000	  1000
  1325	     1	  1000	  1000	  1000
  1326	     1	  1000	  1000	  1000
  1327	     1	  1000	  1000	  1000
  1328	     1	  1000	  1000	  1000
  1329	     1	  1000	  1000	  1000
  1330	     1	  1000	  1000	  1000
  1331	     1	  1000	  1000	  1000
  1332	     1	  1000	  1000	  1000
  1333	     1	  1000	  1000	  1000
  1334	     1	  1000	  1000	  1000
  1335	     1	  1000	  1000	  1000
  1336	     1	  1000	  1000	  1000
  1337	     1	  1000	  1000	  1000
  1338	     1	  1000	  1000	  1000
  1339	     1	  1000	  1000	  1000
  1340	     1	  1000	  1000	  1000
  1341	     1	  1000	  1000	  1000
  1342	     1	  1000	  1000	  1000
  1343	     1	  1000	  1000	  1000
  1344	     1	  1000	  1000	  1000
  1345	     1	  1000	  1000	  1000
  1346	     1	  1000	  1000	  1000
  1347	     1	  1000	  1000	  1000
  1348	     1	  1000	  1000	  1000
  1349	     1	  1000	  1000	  1000
  1350	     1	  1000	  1000	  1000
  1351	     1	  1000	  1000	  1000
  1352	     1	  1000	  1000	  1000
  1353	     1	  1000	  1000	  1000
  1354	     1	  1000	  1000	  1000
  1355	     1	  1000	  1000	  1000
  1356	     1	  1000	  1000	  1000
  1357	     1	  1000	  1000	  1000
  1358	     1	  1000	  1000	  1000
  1359	     1	  1000	  1000	  1000
  1360	     1	  1000	  1000	  1000
  1361	     1	  1000	  1000	  1000
  1362	     1	  1000	  1000	  1000
  1363	     1	  1000	  1000	  1000
  1364	     1	  1000	  1000	  1000
  1365	     1	  1000	  1000	  1000
  1366	     1	  1000	  1000	  1000
  1367	     1	  1000	  1000	  1000
  1368	     1	  1000	  1000	  1000
  1369	     1	  1000	  1000	  1000
  1370	     1	  1000	  1000	  1000
  1371	     1	  1000	  1000	  1000
  1372	     1	  1000	  1000	  1000
  1373	     1	  1000	  1000	  1000
  1374	     1	  1000	  1000	  1000
  1375	     1	  1000	  1000	  1000
  1376	     1	  1000	  1000	  1000
  1377	     1	  1000	  1000	  1000
  1378	     1	  1000	  1000	  1000
  1379	     1	  1000	  1000	  1000
  1380	     1	  1000	  1000	  1000
  1381	     1	  1000	  1000	  1000
  1382	     1	  1000	  1000	  1000
  1383	     1	  1000	  1000	  1000
  1384	     1	  1000	  1000	  1000
  1385	     1	  1000	  1000	  1000
  1386	     1	  1000	  1000	  1000
  1387	     1	  1000	  1000	  1000
  1388	     1	  1000	  1000	  1000
  1389	     1	  1000	  1000	  1000
  1390	     1	  1000	  1000	  1000
  1391	     1	  1000	  1000	  1000
  1392	     1	  1000	  1000	  1000
  1393	     1	  1000	  1000	  1000
  1394	     1	  1000	  1000	  1000
  1395	     1	  1000	  1000	  1000
  1396	     1	  1000	  1000	  1000
  1397	     1	  1000	  1000	  1000
  1398	     1	  1000	  1000	  1000
  1399	     1	  1000	  1000	  1000
  1400	     1	  1000	  1000	  1000
  1401	     1	  1000	  1000	  1000
  1402	     1	  1000	  1000	  1000
  1403	     1	  1000	  1000	  1000
  1404	     1	  1000	  1000	  1000
  1405	     1	  1000	  1000	  1000
  1406	     1	  1000	  1000	  1000
  1407	     1	  1000	  1000	  1000
  1408	     1	  1000	  1000	  1000
  1409	     1	  1000	  1000	  1000
  1410	     1	  1000	  1000	  1000
  1411	     1	  1000	  1000	  1000
  1412	     1	  1000	  1000	  1000
  1413	     1	  1000	  1000	  1000
  1414	     1	  1000	  1000	  1000
  1415	     1	  1000	  1000	  1000
  1416	     1	  1000	  1000	  1000
  1417	     1	  1000	  1000	  1000
  1418	     1	  1000	  1000	  1000
  1419	     1	  1000	  1000	  1000
  1420	     1	  1000	  1000	  1000
  1421	     1	  1000	  1000	  1000
  1422	     1	  1000	  1000	  1000
  1423	     1	  1000	  1000	  1000
  1424	     1	  1000	  1000	  1000
  1425	     1	  1000	  1000	  1000
  1426	     1	  1000	  1000	  1000
  1427	     1	  1000	  1000	  1000
  1428	     1	  1000	  1000	  1000
  1429	     1	  1000	  1000	  1000
  1430	     1	  1000	  1000	  1000
  1431	     1	  1000	  1000	  1000
  1432	     1	  1000	  1000	  1000
  1433	     1	  1000	  1000	  1000
  1434	     1	  1000	  1000	  1000
  1435	     1	  1000	  1000	  1000
  1436	     1	  1000	  1000	  1000
  1437	     1	  1000	  1000	  1000
  1438	     1	  1000	  1000	  1000
  1439	     1	  1000	  1000	  1000
  1440	     1	  1000	  1000	  1000
  1441	     1	  1000	  1000	  1000
  1442	     1	  1000	  1000	  1000
  1443	     1	  1000	  1000	  1000
  1444	     1	  1000	  1000	  1000
  1445	     1	  1000	  1000	  1000
  1446	     1	  1000	  1000	  1000
  1447	     1	  1000	  1000	  1000
  1448	     1	  1000	  1000	  1000
  1449	     1	  1000	  1000	  1000
  1450	     1	  1000	  1000	  1000
  1451	     1	  1000	  1000	  1000
  1452	     1	  1000	  1000	  1000
  1453	     1	  1000	  1000	  1000
  1454	     1	  1000	  1000	  1000
  1455	     1	  1000	  1000	  1000
  1456	     1	  1000	  1000	  1000
  1457	     1	  1000	  1000	  1000
  1458	     1	  1000	  1000	  1000
  1459	     1	  1000	  1000	  1000
  1460	     1	  1000	  1000	  1000
  1461	     1	  1000	  1000	  1000
  1462	     1	  1000	  1000	  1000
  1463	     1	  1000	  1000	  1000
  1464	     1	  1000	  1000	  1000
  1465	     1	  1000	  1000	  1000
  1466	     1	  1000	  1000	  1000
  1467	     1	  1000	  1000	  1000
  1468	     1	  1000	  1000	  1000
  1469	     1	  1000	  1000	  1000
  1470	     1	  1000	  1000	  1000
  1471	     1	  1000	  1000	  1000
  1472	     1	  1000	  1000	  1000
  1473	     1	  1000	  1000	  1000
  1474	     1	  1000	  1000	  1000
  1475	     1	  1000	  1000	  1000
  1476	     1	  1000	  1000	  1000
  1477	     1	  1000	  1000	  1000
  1478	     1	  1000	  1000	  1000
  1479	     1	  1000	  1000	  1000
  1480	     1	  1000	  1000	  1000
  1481	     1	  1000	  1000	  1000
  1482	     1	  1000	  1000	  1000
  1483	     1	  1000	  1000	  1000
  1484	     1	  1000	  1000	  1000
  1485	     1	  1000	  1000	  1000
  1486	     1	  1000	  1000	  1000
  1487	     1	  1000	  1000	  1000
  1488	     1	  1000	  1000	  1000
  1489	     1	  1000	  1000	  1000
  1490	     1	  1000	  1000	  1000
  1491	     1	  1000	  1000	  1000
  1492	     1	  1000	  1000	  1000
  1493	     1	  1000	  1000	  1000
  1494	     1	  1000	  1000	  1000
  1495	     1	  1000	  1000	  1000
  1496	     1	  1000	  1000	  1000
  1497	     1	  1000	  1000	  1000
  1498	     1	  1000	  1000	  1000
  1499	     1	  1000	  1000	  1000
  1500	     1	  1000	  1000	  1000
  1501	     1	  1000	  1000	  1000
  1502	     1	  1000	  1000	  1000
  1503	     1	  1000	  1000	  1000
  1504	     1	  1000	  1000	  1000
  1505	     1	  1000	  1000	  1000
  1506	     1	  1000	  1000	  1000
  1507	     1	  1000	  1000	  1000
  1508	     1	  1000	  1000	  1000
  1509	     1	  1000	  1000	  1000
  1510	     1	  1000	  1000	  1000
  1511	     1	  1000	  1000	  1000
  1512	     1	  1000	  1000	  1000
  1513	     1	  1000	  1000	  1000
  1514	     1	  1000	  1000	  1000
  1515	     1	  1000	  1000	  1000
  1516	     1	  1000	  1000	  1000
  1517	     1	  1000	  1000	  1000
  1518	     1	  1000	  1000	  1000
  1519	     1	  1000	  1000	  1000
  1520	     1	  1000	  1000	  1000
  1521	     1	  1000	  1000	  1000
  1522	     1	  1000	  1000	  1000
  1523	     1	  1000	  1000	  1000
  1524	     1	  1000	  1000	  1000
  1525	     1	  1000	  1000	  1000
  1526	     1	  1000	  1000	  1000
  1527	     1	  1000	  1000	  1000
  1528	     1	  1000	  1000	  1000
  1529	     1	  1000	  1000	  1000
  1530	     1	  1000	  1000	  1000
  1531	     1	  1000	  1000	  1000
  1532	     1	  1000	  1000	  1000
  1533	     1	  1000	  1000	  1000
  1534	     1	  1000	  1000	  1000
  1535	     1	  1000	  1000	  1000
  1536	     1	  1000	  1000	  1000
  1537	     1	  1000	  1000	  1000
  1538	     1	  1000	  1000	  1000
  1539	     1	  1000	  1000	  1000
  1540	     1	  1000	  1000	  1000
  1541	     1	  1000	  1000	  1000
  1542	     1	  1000	  1000	  1000
  1543	     1	  1000	  1000	  1000
  1544	     1	  1000	  1000	  1000
  1545	     1	  1000	  1000	  1000
  1546	     1	  1000	  1000	  1000
  1547	     1	  1000	  1000	  1000
  1548	     1	  1000	  1000	  1000
  1549	     1	  1000	  1000	  1000
  1550	     1	  1000	  1000	  1000
  1551	     1	  1000	  1000	  1000
  1552	     1	  1000	  1000	  1000
  1553	     1	  1000	  1000	  1000
  1554	     1	  1000	  1000	  1000
  1555	     1	  1000	  1000	  1000
  1556	     1	  1000	  1000	  1000
  1557	     1	  1000	  1000	  1000
  1558	     1	  1000	  1000	  1000
  1559	     1	  1000	  1000	  1000
  1560	     1	  1000	  1000	  1000
  1561	     1	  1000	  1000	  1000
  1562	     1	  1000	  1000	  1000
  1563	     1	  1000	  1000	  1000
  1564	     1	  1000	  1000	  1000
  1565	     1	  1000	  1000	  1000
  1566	     1	  1000	  1000	  1000
  1567	     1	  1000	  1000	  1000
  1568	     1	  1000	  1000	  1000
  1569	     1	  1000	  1000	  1000
  1570	     1	  1000	  1000	  1000
  1571	     1	  1000	  1000	  1000
  1572	     1	  1000	  1000	  1000
  1573	     1	  1000	  1000	  1000
  1574	     1	  1000	  1000	  1000
  1575	     1	  1000	  1000	  1000
  1576	     1	  1000	  1000	  1000
  1577	     1	  1000	  1000	  1000
  1578	     1	  1000	  1000	  1000
  1579	     1	  1000	  1000	  1000
  1580	     1	  1000	  1000	  1000
  1581	     1	  1000	  1000	  1000
  1582	     1	  1000	  1000	  1000
  1583	     1	  1000	  1000	  1000
  1584	     1	  1000	  1000	  1000
  1585	     1	  1000	  1000	  1000
  1586	     1	  1000	  1000	  1000
  1587	     1	  1000	  1000	  1000
  1588	     1	  1000	  1000	  1000
  1589	     1	  1000	  1000	  1000
  1590	     1	  1000	  1000	  1000
  1591	     1	  1000	  1000	  1000
  1592	     1	  1000	  1000	  1000
  1593	     1	  1000	  1000	  1000
  1594	     1	  1000	  1000	  1000
  1595	     1	  1000	  1000	  1000
  1596	     1	  1000	  1000	  1000
  1597	     1	  1000	  1000	  1000
  1598	     1	  1000	  1000	  1000
  1599	     1	  1000	  1000	  1000
  1600	     1	  1000	  1000	  1000
  1601	     1	  1000	  1000	  1000
  1602	     1	  1000	  1000	  1000
  1603	     1	  1000	  1000	  1000
  1604	     1	  1000	  1000	  1000
  1605	     1	  1000	  1000	  1000
  1606	     1	  1000	  1000	  1000
  1607	     1	  1000	  1000	  1000
  1608	     1	  1000	  1000	  1000
  1609	     1	  1000	  1000	  1000
  1610	     1	  1000	  1000	  1000
  1611	     1	  1000	  1000	  1000
  1612	     1	  1000	  1000	  1000
  1613	     1	  1000	  1000	  1000
  1614	     1	  1000	  1000	  1000
  1615	     1	  1000	  1000	  1000
  1616	     1	  1000	  1000	  1000
  1617	     1	  1000	  1000	  1000
  1618	     1	  1000	  1000	  1000
  1619	     1	  1000	  1000	  1000
  1620	     1	  1000	  1000	  1000
  1621	     1	  1000	  1000	  1000
  1622	     1	  1000	  1000	  1000
  1623	     1	  1000	  1000	  1000
  1624	     1	  1000	  1000	  1000
  1625	     1	  1000	  1000	  1000
  1626	     1	  1000	  1000	  1000
  1627	     1	  1000	  1000	  1000
  1628	     1	  1000	  1000	  1000
  1629	     1	  1000	  1000	  1000
  1630	     1	  1000	  1000	  1000
  1631	     1	  1000	  1000	  1000
  1632	     1	  1000	  1000	  1000
  1633	     1	  1000	  1000	  1000
  1634	     1	  1000	  1000	  1000
  1635	     1	  1000	  1000	  1000
  1636	     1	  1000	  1000	  1000
  1637	     1	  1000	  1000	  1000
  1638	     1	  1000	  1000	  1000
  1639	     1	  1000	  1000	  1000
  1640	     1	  1000	  1000	  1000
  1641	     1	  1000	  1000	  1000
  1642	     1	  1000	  1000	  1000
  1643	     1	  1000	  1000	  1000
  1644	     1	  1000	  1000	  1000
  1645	     1	  1000	  1000	  1000
  1646	     1	  1000	  1000	  1000
  1647	     1	  1000	  1000	  1000
  1648	     1	  1000	  1000	  1000
  1649	     1	  1000	  1000	  1000
  1650	     1	  1000	  1000	  1000
  1651	     1	  1000	  1000	  1000
  1652	     1	  1000	  1000	  1000
  1653	     1	  1000	  1000	  1000
  1654	     1	  1000	  1000	  1000
  1655	     1	  1000	  1000	  1000
  1656	     1	  1000	  1000	  1000
  1657	     1	  1000	  1000	  1000
  1658	     1	  1000	  1000	  1000
  1659	     1	  1000	  1000	  1000
  1660	     1	  1000	  1000	  1000
  1661	     1	  1000	  1000	  1000
  1662	     1	  1000	  1000	  1000
  1663	     1	  1000	  1000	  1000
  1664	     1	  1000	  1000	  1000
  1665	     1	  1000	  1000	  1000
  1666	     1	  1000	  1000	  1000
  1667	     1	  1000	  1000	  1000
  1668	     1	  1000	  1000	  1000
  1669	     1	  1000	  1000	  1000
  1670	     1	  1000	  1000	  1000
  1671	     1	  1000	  1000	  1000
  1672	     1	  1000	  1000	  1000
  1673	     1	  1000	  1000	  1000
  1674	     1	  1000	  1000	  1000
  1675	     1	  1000	  1000	  1000
  1676	     1	  1000	  1000	  1000
  1677	     1	  1000	  1000	  1000
  1678	     1	  1000	  1000	  1000
  1679	     1	  1000	  1000	  1000
  1680	     1	  1000	  1000	  1000
  1681	     1	  1000	  1000	  1000
  1682	     1	  1000	  1000	  1000
  1683	     1	  1000	  1000	  1000
  1684	     1	  1000	  1000	  1000
  1685	     1	  1000	  1000	  1000
  1686	     1	  1000	  1000	  1000
  1687	     1	  1000	  1000	  1000
  1688	     1	  1000	  1000	  1000
  1689	     1	  1000	  1000	  1000
  1690	     1	  1000	  1000	  1000
  1691	     1	  1000	  1000	  1000
  1692	     1	  1000	  1000	  1000
  1693	     1	  1000	  1000	  1000
  1694	     1	  1000	  1000	  1000
  1695	     1	  1000	  1000	  1000
  1696	     1	  1000	  1000	  1000
  1697	     1	  1000	  1000	  1000
  1698	     1	  1000	  1000	  1000
  1699	     1	  1000	  1000	  1000
  1700	     1	  1000	  1000	  1000
  1701	     1	  1000	  1000	  1000
  1702	     1	  1000	  1000	  1000
  1703	     1	  1000	  1000	  1000
  1704	     1	  1000	  1000	  1000
  1705	     1	  1000	  1000	  1000
  1706	     1	  1000	  1000	  1000
  1707	     1	  1000	  1000	  1000
  1708	     1	  1000	  1000	  1000
  1709	     1	  1000	  1000	  1000
  1710	     1	  1000	  1000	  1000
  1711	     1	  1000	  1000	  1000
  1712	     1	  1000	  1000	  1000
  1713	     1	  1000	  1000	  1000
  1714	     1	  1000	  1000	  1000
  1715	     1	  1000	  1000	  1000
  1716	     1	  1000	  1000	  1000
  1717	     1	  1000	  1000	  1000
  1718	     1	  1000	  1000	  1000
  1719	     1	  1000	  1000	  1000
  1720	     1	  1000	  1000	  1000
  1721	     1	  1000	  1000	  1000
  1722	     1	  1000	  1000	  1000
  1723	     1	  1000	  1000	  1000
  1724	     1	  1000	  1000	  1000
  1725	     1	  1000	  1000	  1000
  1726	     1	  1000	  1000	  1000
  1727	     1	  1000	  1000	  1000
  1728	     1	  1000	  1000	  1000
  1729	     1	  1000	  1000	  1000
  1730	     1	  1000	  1000	  1000
  1731	     1	  1000	  1000	  1000
  1732	     1	  1000	  1000	  1000
  1733	     1	  1000	  1000	  1000
  1734	     1	  1000	  1000	  1000
  1735	     1	  1000	  1000	  1000
  1736	     1	  1000	  1000	  1000
  1737	     1	  1000	  1000	  1000
  1738	     1	  1000	  1000	  1000
  1739	     1	  1000	  1000	  1000
  1740	     1	  1000	  1000	  1000
  1741	     1	  1000	  1000	  1000
  1742	     1	  1000	  1000	  1000
  1743	     1	  1000	  1000	  1000
  1744	     1	  1000	  1000	  1000
  1745	     1	  1000	  1000	  1000
  1746	     1	  1000	  1000	  1000
  1747	     1	  1000	  1000	  1000
  1748	     1	  1000	  1000	  1000
  1749	     1	  1000	  1000	  1000
  1750	     1	  1000	  1000	  1000
  1751	     1	  1000	  1000	  1000
  1752	     1	  1000	  1000	  1000
  1753	     1	  1000	  1000	  1000
  1754	     1	  1000	  1000	  1000
  1755	     1	  1000	  1000	  1000
  1756	     1	  1000	  1000	  1000
  1757	     1	  1000	  1000	  1000
  1758	     1	  1000	  1000	  1000
  1759	     1	  1000	  1000	  1000
  1760	     1	  1000	  1000	  1000
  1761	     1	  1000	  1000	  1000
  1762	     1	  1000	  1000	  1000
  1763	     1	  1000	  1000	  1000
  1764	     1	  1000	  1000	  1000
  1765	     1	  1000	  1000	  1000
  1766	     1	  1000	  1000	  1000
  1767	     1	  1000	  1000	  1000
  1768	     1	  1000	  1000	  1000
  1769	     1	  1000	  1000	  1000
  1770	     1	  1000	  1000	  1000
  1771	     1	  1000	  1000	  1000
  1772	     1	  1000	  1000	  1000
  1773	     1	  1000	  1000	  1000
  1774	     1	  1000	  1000	  1000
  1775	     1	  1000	  1000	  1000
  1776	     1	  1000	  1000	  1000
  1777	     1	  1000	  1000	  1000
  1778	     1	  1000	  1000	  1000
  1779	     1	  1000	  1000	  1000
  1780	     1	  1000	  1000	  1000
  1781	     1	  1000	  1000	  1000
  1782	     1	  1000	  1000	  1000
  1783	     1	  1000	  1000	  1000
  1784	     1	  1000	  1000	  1000
  1785	     1	  1000	  1000	  1000
  1786	     1	  1000	  1000	  1000
  1787	     1	  1000	  1000	  1000
  1788	     1	  1000	  1000	  1000
  1789	     1	  1000	  1000	  1000
  1790	     1	  1000	  1000	  1000
  1791	     1	  1000	  1000	  1000
  1792	     1	  1000	  1000	  1000
  1793	     1	  1000	  1000	  1000
  1794	     1	  1000	  1000	  1000
  1795	     1	  1000	  1000	  1000
  1796	     1	  1000	  1000	  1000
  1797	     1	  1000	  1000	  1000
  1798	     1	  1000	  1000	  1000
  1799	     1	  1000	  1000	  1000
  1800	     1	  1000	  1000	  1000
#endif 


#ifdef POSRES_noH 
[ position_restraints ] 
; atom  type      fx      fy      fz
     1	     1	  1000	  1000	  1000
     2	     1	  1000	  1000	  1000
     4	     1	  1000	  1000	  1000
     6	     1	  1000	  1000	  1000
     7	     1	  1000	  1000	  1000
     9	     1	  1000	  1000	  1000
    11	     1	  1000	  1000	  1000
    12	     1	  1000	  1000	  1000
    14	     1	  1000	  1000	  1000
    16	     1	  1000	  1000	  1000
    17	     1	  1000	  1000	  1000
    19	     1	  1000	  1000	  1000
    21	     1	  1000	  1000	  1000
    22	     1	  1000	  1000	  1000
    24	     1	  1000	  1000	  1000
    26	     1	  1000	  1000	  1000
    27	     1	  1000	  1000	  1000
    29	     1	  1000	  1000	  1000
    31	     1	  1000	  1000	  1000
    32	     1	  1000	  1000	  1000
    34	     1	  1000	  1000	  1000
    36	     1	  1000	  1000	  1000
    37	     1	  1000	  1000	  1000
    39	     1	  1000	  1000	  1000
    41	     1	  1000	  1000	  1000
    42	     1	  1000	  1000	  1000
    44	     1	  1000	  1000	  1000
    46	     1	  1000	  1000	  1000
    47	     1	  1000	  1000	  1000
    49	     1	  1000	  1000	  1000
    51	     1	  1000	  1000	  1000
    52	     1	  1000	  1000	  1000
    54	     1	  1000	  1000	  1000
    56	     1	  1000	  1000	  1000
    57	     1	  1000	  1000	  1000
    59	     1	  1000	  1000	  1000
    61	     1	  1000	  1000	  1000
    62	     1	  1000	  1000	  1000
    64	     1	  1000	  1000	  1000
    66	     1	  1000	  1000	  1000
    67	     1	  1000	  1000	  1000
    69	     1	  1000	  1000	  1000
    71	     1	  1000	  1000	  1000
    72	     1	  1000	  1000	  1000
    74	     1	  1000	  1000	  1000
    76	     1	  1000	  1000	  1000
    77	     1	  1000	  1000	  1000
    79	     1	  1000	  1000	  1000
    81	     1	  1000	  1000	  1000
    82	     1	  1000	  1000	  1000
    84	     1	  1000	  1000	  1000
    86	     1	  1000	  1000	  1000
    87	     1	  1000	  1000	  1000
    89	     1	  1000	  1000	  1000
    91	     1	  1000	  1000	  1000
    92	     1	  1000	  1000	  1000
    94	     1	  1000	  1000	  1000
    96	     1	  1000	  1000	  1000
    97	     1	  1000	  1000	  1000
    99	     1	  1000	  1000	  1000
   101	     1	  1000	  1000	  1000
   102	     1	  1000	  1000	  1000
   104	     1	  1000	  1000	  1000
   106	     1	  1000	  1000	  1000
   107	     1	  1000	  1000	  1000
   109	     1	  1000	  1000	  1000
   111	     1	  1000	  1000	  1000
   112	     1	  1000	  1000	  1000
   114	     1	  1000	  1000	  1000
   116	     1	  1000	  1000	  1000
   117	     1	  1000	  1000	  1000
   119	     1	  1000	  1000	  1000
   121	     1	  1000	  1000	  1000
   122	     1	  1000	  1000	  1000
   124	     1	  1000	  1000	  1000
   126	     1	  1000	  1000	  1000
   127	     1	  1000	  1000	  1000
   129	     1	  1000	  1000	  1000
   131	     1	  1000	  1000	  1000
   132	     1	  1000	  1000	  1000
   134	     1	  1000	  1000	  1000
   136	     1	  1000	  1000	  1000
   137	     1	  1000	  1000	  1000
   139	     1	  1000	  1000	  1000
   141	     1	  1000	  1000	  1000
   142	     1	  1000	  1000	  1000
   144	     1	  1000	  1000	  1000
   146	     1	  1000	  1000	  1000
   147	     1	  1000	  1000	  1000
   149	     1	  1000	  1000	  1000
   151	     1	  1000	  1000	  1000
   152	     1	  1000	  1000	  1000
   154	     1	  1000	  1000	  1000
   156	     1	  1000	  1000	  1000
   157	     1	  1000	  1000	  1000
   159	     1	  1000	  1000	  1000
   161	     1	  1000	  1000	  1000
   162	     1	  1000	  1000	  1000
   164	     1	  1000	  1000	  1000
   166	     1	  1000	  1000	  1000
   167	     1	  1000	  1000	  1000
   169	     1	  1000	  1000	  1000
   171	     1	  1000	  1000	  1000
   172	     1	  1000	  1000	  1000
   174	     1	  1000	  1000	  1000
   176	     1	  1000	  1000	  1000
   177	     1	  1000	  1000	  1000
   179	     1	  1000	  1000	  1000
   181	     1	  1000	  1000	  1000
   182	     1	  1000	  1000	  1000
   184	     1	  1000	  1000	  1000
   186	     1	  1000	  1000	  1000
   187	     1	  1000	  1000	  1000
   189	     1	  1000	  1000	  1000
   191	     1	  1000	  1000	  1000
   192	     1	  1000	  1000	  1000
   194	     1	  1000	  1000	  1000
   196	     1	  1000	  1000	  1000
   197	     1	  1000	  1000	  1000
   199	     1	  1000	  1000	  1000
   201	     1	  1000	  1000	  1000
   202	     1	  1000	  1000	  1000
   204	     1	  1000	  1000	  1000
   206	     1	  1000	  1000	  1000
   207	     1	  1000	  1000	  1000
   209	     1	  1000	  1000	  1000
   211	     1	  1000	  1000	  1000
   212	     1	  1000	  1000	  1000
   214	     1	  1000	  1000	  1000
   216	     1	  1000	  1000	  1000
   217	     1	  1000	  1000	  1000
   219	     1	  1000	  1000	  1000
   221	     1	  1000	  1000	  1000
   222	     1	  1000	  1000	  1000
   224	     1	  1000	  1000	  1000
   226	     1	  1000	  1000	  1000
   227	     1	  1000	  1000	  1000
   229	     1	  1000	  1000	  1000
   231	     1	  1000	  1000	  1000
   232	     1	  1000	  1000	  1000
   234	     1	  1000	  1000	  1000
   236	     1	  1000	  1000	  1000
   237	     1	  1000	  1000	  1000
   239	     1	  1000	  1000	  1000
   241	     1	  1000	  1000	  1000
   242	     1	  1000	  1000	  1000
   244	     1	  1000	  1000	  1000
   246	     1	  1000	  1000	  1000
   247	     1	  1000	  1000	  1000
   249	     1	  1000	  1000	  1000
   251	     1	  1000	  1000	  1000
   252	     1	  1000	  1000	  1000
   254	     1	  1000	  1000	  1000
   256	     1	  1000	  1000	  1000
   257	     1	  1000	  1000	  1000
   259	     1	  1000	  1000	  1000
   261	     1	  1000	  1000	  1000
   262	     1	  1000	  1000	  1000
   264	     1	  1000	  1000	  1000
   266	     1	  1000	  1000	  1000
   267	     1	  1000	  1000	  1000
   269	     1	  1000	  1000	  1000
   271	     1	  1000	  1000	  1000
   272	     1	  1000	  1000	  1000
   274	     1	  1000	  1000	  1000
   276	     1	  1000	  1000	  1000
   277	     1	  1000	  1000	  1000
   279	     1	  1000	  1000	  1000
   281	     1	  1000	  1000	  1000
   282	     1	  1000	  1000	  1000
   284	     1	  1000	  1000	  1000
   286	     1	  1000	  1000	  1000
   287	     1	  1000	  1000	  1000
   289	     1	  1000	  1000	  1000
   291	     1	  1000	  1000	  1000
   292	     1	  1000	  1000	  1000
   294	     1	  1000	  1000	  1000
   296	     1	  1000	  1000	  1000
   297	     1	  1000	  1000	  1000
   299	     1	  1000	  1000	  1000
   301	     1	  1000	  1000	  1000
   302	     1	  1000	  1000	  1000
   304	     1	  1000	  1000	  1000
   306	     1	  1000	  1000	  1000
   307	     1	  1000	  1000	  1000
   309	     1	  1000	  1000	  1000
   311	     1	  1000	  1000	  1000
   312	     1	  1000	  1000	  1000
   314	     1	  1000	  1000	  1000
   316	     1	  1000	  1000	  1000
   317	     1	  1000	  1000	  1000
   319	     1	  1000	  1000	  1000
   321	     1	  1000	  1000	  1000
   322	     1	  1000	  1000	  1000
   324	     1	  1000	  1000	  1000
   326	     1	  1000	  1000	  1000
   327	     1	  1000	  1000	  1000
   329	     1	  1000	  1000	  1000
   331	     1	  1000	  1000	  1000
   332	     1	  1000	  1000	  1000
   334	     1	  1000	  1000	  1000
   336	     1	  1000	  1000	  1000
   337	     1	  1000	  1000	  1000
   339	     1	  1000	  1000	  1000
   341	     1	  1000	  1000	  1000
   342	     1	  1000	  1000	  1000
   344	     1	  1000	  1000	  1000
   346	     1	  1000	  1000	  1000
   347	     1	  1000	  1000	  1000
   349	     1	  1000	  1000	  1000
   351	     1	  1000	  1000	  1000
   352	     1	  1000	  1000	  1000
   354	     1	  1000	  1000	  1000
   356	     1	  1000	  1000	  1000
   357	     1	  1000	  1000	  1000
   359	     1	  1000	  1000	  1000
   361	     1	  1000	  1000	  1000
   362	     1	  1000	  1000	  1000
   364	     1	  1000	  1000	  1000
   366	     1	  1000	  1000	  1000
   367	     1	  1000	  1000	  1000
   369	     1	  1000	  1000	  1000
   371	     1	  1000	  1000	  1000
   372	     1	  1000	  1000	  1000
   374	     1	  1000	  1000	  1000
   376	     1	  1000	  1000	  1000
   377	     1	  1000	  1000	  1000
   379	     1	  1000	  1000	  1000
   381	     1	  1000	  1000	  1000
   382	     1	  1000	  1000	  1000
   384	     1	  1000	  1000	  1000
   386	     1	  1000	  1000	  1000
   387	     1	  1000	  1000	  1000
   389	     1	  1000	  1000	  1000
   391	     1	  1000	  1000	  1000
   392	     1	  1000	  1000	  1000
   394	     1	  1000	  1000	  1000
   396	     1	  1000	  1000	  1000
   397	     1	  1000	  1000	  1000
   399	     1	  1000	  1000	  1000
   401	     1	  1000	  1000	  1000
   402	     1	  1000	  1000	  1000
   404	     1	  1000	  1000	  1000
   406	     1	  1000	  1000	  1000
   407	     1	  1000	  1000	  1000
   409	     1	  1000	  1000	  1000
   411	     1	  1000	  1000	  1000
   412	     1	  1000	  1000	  1000
   414	     1	  1000	  1000	  1000
   416	     1	  1000	  1000	  1000
   417	     1	  1000	  1000	  1000
   419	     1	  1000	  1000	  1000
   421	     1	  1000	  1000	  1000
   422	     1	  1000	  1000	  1000
   424	     1	  1000	  1000	  1000
   426	     1	  1000	  1000	  1000
   427	     1	  1000	  1000	  1000
   429	     1	  1000	  1000	  1000
   431	     1	  1000	  1000	  1000
   432	     1	  1000	  1000	  1000
   434	     1	  1000	  1000	  1000
   436	     1	  1000	  1000	  1000
   437	     1	  1000	  1000	  1000
   439	     1	  1000	  1000	  1000
   441	     1	  1000	  1000	  1000
   442	     1	  1000	  1000	  1000
   444	     1	  1000	  1000	  1000
   446	     1	  1000	  1000	  1000
   447	     1	  1000	  1000	  1000
   449	     1	  1000	  1000	  1000
   451	     1	  1000	  1000	  1000
   452	     1	  1000	  1000	  1000
   454	     1	  1000	  1000	  1000
   456	     1	  1000	  1000	  1000
   457	     1	  1000	  1000	  1000
   459	     1	  1000	  1000	  1000
   461	     1	  1000	  1000	  1000
   462	     1	  1000	  1000	  1000
   464	     1	  1000	  1000	  1000
   466	     1	  1000	  1000	  1000
   467	     1	  1000	  1000	  1000
   469	     1	  1000	  1000	  1000
   471	     1	  1000	  1000	  1000
   472	     1	  1000	  1000	  1000
   474	     1	  1000	  1000	  1000
   476	     1	  1000	  1000	  1000
   477	     1	  1000	  1000	  1000
   479	     1	  1000	  1000	  1000
   481	     1	  1000	  1000	  1000
   482	     1	  1000	  1000	  1000
   484	     1	  1000	  1000	  1000
   486	     1	  1000	  1000	  1000
   487	     1	  1000	  1000	  1000
   489	     1	  1000	  1000	  1000
   491	     1	  1000	  1000	  1000
   492	     1	  1000	  1000	  1000
   494	     1	  1000	  1000	  1000
   496	     1	  1000	  1000	  1000
   497	     1	  1000	  1000	  1000
   499	     1	  1000	  1000	  1000
   501	     1	  1000	  1000	  1000
   502	     1	  1000	  1000	  1000
   504	     1	  1000	  1000	  1000
   506	     1	  1000	  1000	  1000
   507	     1	  1000	  1000	  1000
   509	     1	  1000	  1000	  1000
   511	     1	  1000	  1000	  1000
   512	     1	  1000	  1000	  1000
   514	     1	  1000	  1000	  1000
   516	     1	  1000	  1000	  1000
   517	     1	  1000	  1000	  1000
   519	     1	  1000	  1000	  1000
   521	     1	  1000	  1000	  1000
   522	     1	  1000	  1000	  1000
   524	     1	  1000	  1000	  1000
   526	     1	  1000	  1000	  1000
   527	     1	  1000	  1000	  1000
   529	     1	  1000	  1000	  1000
   531	     1	  1000	  1000	  1000
   532	     1	  1000	  1000	  1000
   534	     1	  1000	  1000	  1000
   536	     1	  1000	  1000	  1000
   537	     1	  1000	  1000	  1000
   539	     1	  1000	  1000	  1000
   541	     1	  1000	  1000	  1000
   542	     1	  1000	  1000	  1000
   544	     1	  1000	  1000	  1000
   546	     1	  1000	  1000	  1000
   547	     1	  1000	  1000	  1000
   549	     1	  1000	  1000	  1000
   551	     1	  1000	  1000	  1000
   552	     1	  1000	  1000	  1000
   554	     1	  1000	  1000	  1000
   556	     1	  1000	  1000	  1000
   557	     1	  1000	  1000	  1000
   559	     1	  1000	  1000	  1000
   561	     1	  1000	  1000	  1000
   562	     1	  1000	  1000	  1000
   564	     1	  1000	  1000	  1000
   566	     1	  1000	  1000	  1000
   567	     1	  1000	  1000	  1000
   569	     1	  1000	  1000	  1000
   571	     1	  1000	  1000	  1000
   572	     1	  1000	  1000	  1000
   574	     1	  1000	  1000	  1000
   576	     1	  1000	  1000	  1000
   577	     1	  1000	  1000	  1000
   579	     1	  1000	  1000	  1000
   581	     1	  1000	  1000	  1000
   582	     1	  1000	  1000	  1000
   584	     1	  1000	  1000	  1000
   586	     1	  1000	  1000	  1000
   587	     1	  1000	  1000	  1000
   589	     1	  1000	  1000	  1000
   591	     1	  1000	  1000	  1000
   592	     1	  1000	  1000	  1000
   594	     1	  1000	  1000	  1000
   596	     1	  1000	  1000	  1000
   597	     1	  1000	  1000	  1000
   599	     1	  1000	  1000	  1000
   601	     1	  1000	  1000	  1000
   602	     1	  1000	  1000	  1000
   604	     1	  1000	  1000	  1000
   606	     1	  1000	  1000	  1000
   607	     1	  1000	  1000	  1000
   609	     1	  1000	  1000	  1000
   611	     1	  1000	  1000	  1000
   612	     1	  1000	  1000	  1000
   614	     1	  1000	  1000	  1000
   616	     1	  1000	  1000	  1000
   617	     1	  1000	  1000	  1000
   619	     1	  1000	  1000	  1000
   621	     1	  1000	  1000	  1000
   622	     1	  1000	  1000	  1000
   624	     1	  1000	  1000	  1000
   626	     1	  1000	  1000	  1000
   627	     1	  1000	  1000	  1000
   629	     1	  1000	  1000	  1000
   631	     1	  1000	  1000	  1000
   632	     1	  1000	  1000	  1000
   634	     1	  1000	  1000	  1000
   636	     1	  1000	  1000	  1000
   637	     1	  1000	  1000	  1000
   639	     1	  1000	  1000	  1000
   641	     1	  1000	  1000	  1000
   642	     1	  1000	  1000	  1000
   644	     1	  1000	  1000	  1000
   646	     1	  1000	  1000	  1000
   647	     1	  1000	  1000	  1000
   649	     1	  1000	  1000	  1000
   651	     1	  1000	  1000	  1000
   652	     1	  1000	  1000	  1000
   654	     1	  1000	  1000	  1000
   656	     1	  1000	  1000	  1000
   657	     1	  1000	  1000	  1000
   659	     1	  1000	  1000	  1000
   661	     1	  1000	  1000	  1000
   662	     1	  1000	  1000	  1000
   664	     1	  1000	  1000	  1000
   666	     1	  1000	  1000	  1000
   667	     1	  1000	  1000	  1000
   669	     1	  1000	  1000	  1000
   671	     1	  1000	  1000	  1000
   672	     1	  1000	  1000	  1000
   674	     1	  1000	  1000	  1000
   676	     1	  1000	  1000	  1000
   677	     1	  1000	  1000	  1000
   679	     1	  1000	  1000	  1000
   681	     1	  1000	  1000	  1000
   682	     1	  1000	  1000	  1000
   684	     1	  1000	  1000	  1000
   686	     1	  1000	  1000	  1000
   687	     1	  1000	  1000	  1000
   689	     1	  1000	  1000	  1000
   691	     1	  1000	  1000	  1000
   692	     1	  1000	  1000	  1000
   694	     1	  1000	  1000	  1000
   696	     1	  1000	  1000	  1000
   697	     1	  1000	  1000	  1000
   699	     1	  1000	  1000	  1000
   701	     1	  1000	  1000	  1000
   702	     1	  1000	  1000	  1000
   704	     1	  1000	  1000	  1000
   706	     1	  1000	  1000	  1000
   707	     1	  1000	  1000	  1000
   709	     1	  1000	  1000	  1000
   711	     1	  1000	  1000	  1000
   712	     1	  1000	  1000	  1000
   714	     1	  1000	  1000	  1000
   716	     1	  1000	  1000	  1000
   717	     1	  1000	  1000	  1000
   719	     1	  1000	  1000	  1000
   721	     1	  1000	  1000	  1000
   722	     1	  1000	  1000	  1000
   724	     1	  1000	  1000	  1000
   726	     1	  1000	  1000	  1000
   727	     1	  1000	  1000	  1000
   729	     1	  1000	  1000	  1000
   731	     1	  1000	  1000	  1000
   732	     1	  1000	  1000	  1000
   734	     1	  1000	  1000	  1000
   736	     1	  1000	  1000	  1000
   737	     1	  1000	  1000	  1000
   739	     1	  1000	  1000	  1000
   741	     1	  1000	  1000	  1000
   742	     1	  1000	  1000	  1000
   744	     1	  1000	  1000	  1000
   746	     1	  1000	  1000	  1000
   747	     1	  1000	  1000	  1000
   749	     1	  1000	  1000	  1000
   751	     1	  1000	  1000	  1000
   752	     1	  1000	  1000	  1000
   754	     1	  1000	  1000	  1000
   756	     1	  1000	  1000	  1000
   757	     1	  1000	  1000	  1000
   759	     1	  1000	  1000	  1000
   761	     1	  1000	  1000	  1000
   762	     1	  1000	  1000	  1000
   764	     1	  1000	  1000	  1000
   766	     1	  1000	  1000	  1000
   767	     1	  1000	  1000	  1000
   769	     1	  1000	  1000	  1000
   771	     1	  1000	  1000	  1000
   772	     1	  1000	  1000	  1000
   774	     1	  1000	  1000	  1000
   776	     1	  1000	  1000	  1000
   777	     1	  1000	  1000	  1000
   779	     1	  1000	  1000	  1000
   781	     1	  1000	  1000	  1000
   782	     1	  1000	  1000	  1000
   784	     1	  1000	  1000	  1000
   786	     1	  1000	  1000	  1000
   787	     1	  1000	  1000	  1000
   789	     1	  1000	  1000	  1000
   791	     1	  1000	  1000	  1000
   792	     1	  1000	  1000	  1000
   794	     1	  1000	  1000	  1000
   796	     1	  1000	  1000	  1000
   797	     1	  1000	  1000	  1000
   799	     1	  1000	  1000	  1000
   801	     1	  1000	  1000	  1000
   802	     1	  1000	  1000	  1000
   804	     1	  1000	  1000	  1000
   806	     1	  1000	  1000	  1000
   807	     1	  1000	  1000	  1000
   809	     1	  1000	  1000	  1000
   811	     1	  1000	  1000	  1000
   812	     1	  1000	  1000	  1000
   814	     1	  1000	  1000	  1000
   816	     1	  1000	  1000	  1000
   817	     1	  1000	  1000	  1000
   819	     1	  1000	  1000	  1000
   821	     1	  1000	  1000	  1000
   822	     1	  1000	  1000	  1000
   824	     1	  1000	  1000	  1000
   826	     1	  1000	  1000	  1000
   827	     1	  1000	  1000	  1000
   829	     1	  1000	  1000	  1000
   831	     1	  1000	  1000	  1000
   832	     1	  1000	  1000	  1000
   834	     1	  1000	  1000	  1000
   836	     1	  1000	  1000	  1000
   837	     1	  1000	  1000	  1000
   839	     1	  1000	  1000	  1000
   841	     1	  1000	  1000	  1000
   842	     1	  1000	  1000	  1000
   844	     1	  1000	  1000	  1000
   846	     1	  1000	  1000	  1000
   847	     1	  1000	  1000	  1000
   849	     1	  1000	  1000	  1000
   851	     1	  1000	  1000	  1000
   852	     1	  1000	  1000	  1000
   854	     1	  1000	  1000	  1000
   856	     1	  1000	  1000	  1000
   857	     1	  1000	  1000	  1000
   859	     1	  1000	  1000	  1000
   861	     1	  1000	  1000	  1000
   862	     1	  1000	  1000	  1000
   864	     1	  1000	  1000	  1000
   866	     1	  1000	  1000	  1000
   867	     1	  1000	  1000	  1000
   869	     1	  1000	  1000	  1000
   871	     1	  1000	  1000	  1000
   872	     1	  1000	  1000	  1000
   874	     1	  1000	  1000	  1000
   876	     1	  1000	  1000	  1000
   877	     1	  1000	  1000	  1000
   879	     1	  1000	  1000	  1000
   881	     1	  1000	  1000	  1000
   882	     1	  1000	  1000	  1000
   884	     1	  1000	  1000	  1000
   886	     1	  1000	  1000	  1000
   887	     1	  1000	  1000	  1000
   889	     1	  1000	  1000	  1000
   891	     1	  1000	  1000	  1000
   892	     1	  1000	  1000	  1000
   894	     1	  1000	  1000	  1000
   896	     1	  1000	  1000	  1000
   897	     1	  1000	  1000	  1000
   899	     1	  1000	  1000	  1000
   901	     1	  1000	  1000	  1000
   902	     1	  1000	  1000	  1000
   904	     1	  1000	  1000	  1000
   906	     1	  1000	  1000	  1000
   907	     1	  1000	  1000	  1000
   909	     1	  1000	  1000	  1000
   911	     1	  1000	  1000	  1000
   912	     1	  1000	  1000	  1000
   914	     1	  1000	  1000	  1000
   916	     1	  1000	  1000	  1000
   917	     1	  1000	  1000	  1000
   919	     1	  1000	  1000	  1000
   921	     1	  1000	  1000	  1000
   922	     1	  1000	  1000	  1000
   924	     1	  1000	  1000	  1000
   926	     1	  1000	  1000	  1000
   927	     1	  1000	  1000	  1000
   929	     1	  1000	  1000	  1000
   931	     1	  1000	  1000	  1000
   932	     1	  1000	  1000	  1000
   934	     1	  1000	  1000	  1000
   936	     1	  1000	  1000	  1000
   937	     1	  1000	  1000	  1000
   939	     1	  1000	  1000	  1000
   941	     1	  1000	  1000	  1000
   942	     1	  1000	  1000	  1000
   944	     1	  1000	  1000	  1000
   946	     1	  1000	  1000	  1000
   947	     1	  1000	  1000	  1000
   949	     1	  1000	  1000	  1000
   951	     1	  1000	  1000	  1000
   952	     1	  1000	  1000	  1000
   954	     1	  1000	  1000	  1000
   956	     1	  1000	  1000	  1000
   957	     1	  1000	  1000	  1000
   959	     1	  1000	  1000	  1000
   961	     1	  1000	  1000	  1000
   962	     1	  1000	  1000	  1000
   964	     1	  1000	  1000	  1000
   966	     1	  1000	  1000	  1000
   967	     1	  1000	  1000	  1000
   969	     1	  1000	  1000	  1000
   971	     1	  1000	  1000	  1000
   972	     1	  1000	  1000	  1000
   974	     1	  1000	  1000	  1000
   976	     1	  1000	  1000	  1000
   977	     1	  1000	  1000	  1000
   979	     1	  1000	  1000	  1000
   981	     1	  1000	  1000	  1000
   982	     1	  1000	  1000	  1000
   984	     1	  1000	  1000	  1000
   986	     1	  1000	  1000	  1000
   987	     1	  1000	  1000	  1000
   989	     1	  1000	  1000	  1000
   991	     1	  1000	  1000	  1000
   992	     1	  1000	  1000	  1000
   994	     1	  1000	  1000	  1000
   996	     1	  1000	  1000	  1000
   997	     1	  1000	  1000	  1000
   999	     1	  1000	  1000	  1000
  1001	     1	  1000	  1000	  1000
  1002	     1	  1000	  1000	  1000
  1004	     1	  1000	  1000	  1000
  1006	     1	  1000	  1000	  1000
  1007	     1	  1000	  1000	  1000
  1009	     1	  1000	  1000	  1000
  1011	     1	  1000	  1000	  1000
  1012	     1	  1000	  1000	  1000
  1014	     1	  1000	  1000	  1000
  1016	     1	  1000	  1000	  1000
  1017	     1	  1000	  1000	  1000
  1019	     1	  1000	  1000	  1000
  1021	     1	  1000	  1000	  1000
  1022	     1	  1000	  1000	  1000
  1024	     1	  1000	  1000	  1000
  1026	     1	  1000	  1000	  1000
  1027	     1	  1000	  1000	  1000
  1029	     1	  1000	  1000	  1000
  1031	     1	  1000	  1000	  1000
  1032	     1	  1000	  1000	  1000
  1034	     1	  1000	  1000	  1000
  1036	     1	  1000	  1000	  1000
  1037	     1	  1000	  1000	  1000
  1039	     1	  1000	  1000	  1000
  1041	     1	  1000	  1000	  1000
  1042	     1	  1000	  1000	  1000
  1044	     1	  1000	  1000	  1000
  1046	     1	  1000	  1000	  1000
  1047	     1	  1000	  1000	  1000
  1049	     1	  1000	  1000	  1000
  1051	     1	  1000	  1000	  1000
  1052	     1	  1000	  1000	  1000
  1054	     1	  1000	  1000	  1000
  1056	     1	  1000	  1000	  1000
  1057	     1	  1000	  1000	  1000
  1059	     1	  1000	  1000	  1000
  1061	     1	  1000	  1000	  1000
  1062	     1	  1000	  1000	  1000
  1064	     1	  1000	  1000	  1000
  1066	     1	  1000	  1000	  1000
  1067	     1	  1000	  1000	  1000
  1069	     1	  1000	  1000	  1000
  1071	     1	  1000	  1000	  1000
  1072	     1	  1000	  1000	  1000
  1074	     1	  1000	  1000	  1000
  1076	     1	  1000	  1000	  1000
  1077	     1	  1000	  1000	  1000
  1079	     1	  1000	  1000	  1000
  1081	     1	  1000	  1000	  1000
  1082	     1	  1000	  1000	  1000
  1084	     1	  1000	  1000	  1000
  1086	     1	  1000	  1000	  1000
  1087	     1	  1000	  1000	  1000
  1089	     1	  1000	  1000	  1000
  1091	     1	  1000	  1000	  1000
  1092	     1	  1000	  1000	  1000
  1094	     1	  1000	  1000	  1000
  1096	     1	  1000	  1000	  1000
  1097	     1	  1000	  1000	  1000
  1099	     1	  1000	  1000	  1000
  1101	     1	  1000	  1000	  1000
  1102	     1	  1000	  1000	  1000
  1104	     1	  1000	  1000	  1000
  1106	     1	  1000	  1000	  1000
  1107	     1	  1000	  1000	  1000
  1109	     1	  1000	  1000	  1000
  1111	     1	  1000	  1000	  1000
  1112	     1	  1000	  1000	  1000
  1114	     1	  1000	  1000	  1000
  1116	     1	  1000	  1000	  1000
  1117	     1	  1000	  1000	  1000
  1119	     1	  1000	  1000	  1000
  1121	     1	  1000	  1000	  1000
  1122	     1	  1000	  1000	  1000
  1124	     1	  1000	  1000	  1000
  1126	     1	  1000	  1000	  1000
  1127	     1	  1000	  1000	  1000
  1129	     1	  1000	  1000	  1000
  1131	     1	  1000	  1000	  1000
  1132	     1	  1000	  1000	  1000
  1134	     1	  1000	  1000	  1000
  1136	     1	  1000	  1000	  1000
  1137	     1	  1000	  1000	  1000
  1139	     1	  1000	  1000	  1000
  1141	     1	  1000	  1000	  1000
  1142	     1	  1000	  1000	  1000
  1144	     1	  1000	  1000	  1000
  1146	     1	  1000	  1000	  1000
  1147	     1	  1000	  1000	  1000
  1149	     1	  1000	  1000	  1000
  1151	     1	  1000	  1000	  1000
  1152	     1	  1000	  1000	  1000
  1154	     1	  1000	  1000	  1000
  1156	     1	  1000	  1000	  1000
  1157	     1	  1000	  1000	  1000
  1159	     1	  1000	  1000	  1000
  1161	     1	  1000	  1000	  1000
  1162	     1	  1000	  1000	  1000
  1164	     1	  1000	  1000	  1000
  1166	     1	  1000	  1000	  1000
  1167	     1	  1000	  1000	  1000
  1169	     1	  1000	  1000	  1000
  1171	     1	  1000	  1000	  1000
  1172	     1	  1000	  1000	  1000
  1174	     1	  1000	  1000	  1000
  1176	     1	  1000	  1000	  1000
  1177	     1	  1000	  1000	  1000
  1179	     1	  1000	  1000	  1000
  1181	     1	  1000	  1000	  1000
  1182	     1	  1000	  1000	  1000
  1184	     1	  1000	  1000	  1000
  1186	     1	  1000	  1000	  1000
  1187	     1	  1000	  1000	  1000
  1189	     1	  1000	  1000	  1000
  1191	     1	  1000	  1000	  1000
  1192	     1	  1000	  1000	  1000
  1194	     1	  1000	  1000	  1000
  1196	     1	  1000	  1000	  1000
  1197	     1	  1000	  1000	  1000
  1199	     1	  1000	  1000	  1000
  1201	     1	  1000	  1000	  1000
  1202	     1	  1000	  1000	  1000
  1204	     1	  1000	  1000	  1000
  1206	     1	  1000	  1000	  1000
  1207	     1	  1000	  1000	  1000
  1209	     1	  1000	  1000	  1000
  1211	     1	  1000	  1000	  1000
  1212	     1	  1000	  1000	  1000
  1214	     1	  1000	  1000	  1000
  1216	     1	  1000	  1000	  1000
  1217	     1	  1000	  1000	  1000
  1219	     1	  1000	  1000	  1000
  1221	     1	  1000	  1000	  1000
  1222	     1	  1000	  1000	  1000
  1224	     1	  1000	  1000	  1000
  1226	     1	  1000	  1000	  1000
  1227	     1	  1000	  1000	  1000
  1229	     1	  1000	  1000	  1000
  1231	     1	  1000	  1000	  1000
  1232	     1	  1000	  1000	  1000
  1234	     1	  1000	  1000	  1000
  1236	     1	  1000	  1000	  1000
  1237	     1	  1000	  1000	  1000
  1239	     1	  1000	  1000	  1000
  1241	     1	  1000	  1000	  1000
  1242	     1	  1000	  1000	  1000
  1244	     1	  1000	  1000	  1000
  1246	     1	  1000	  1000	  1000
  1247	     1	  1000	  1000	  1000
  1249	     1	  1000	  1000	  1000
  1251	     1	  1000	  1000	  1000
  1252	     1	  1000	  1000	  1000
  1254	     1	  1000	  1000	  1000
  1256	     1	  1000	  1000	  1000
  1257	     1	  1000	  1000	  1000
  1259	     1	  1000	  1000	  1000
  1261	     1	  1000	  1000	  1000
  1262	     1	  1000	  1000	  1000
  1264	     1	  1000	  1000	  1000
  1266	     1	  1000	  1000	  1000
  1267	     1	  1000	  1000	  1000
  1269	     1	  1000	  1000	  1000
  1271	     1	  1000	  1000	  1000
  1272	     1	  1000	  1000	  1000
  1274	     1	  1000	  1000	  1000
  1276	     1	  1000	  1000	  1000
  1277	     1	  1000	  1000	  1000
  1279	     1	  1000	  1000	  1000
  1281	     1	  1000	  1000	  1000
  1282	     1	  1000	  1000	  1000
  1284	     1	  1000	  1000	  1000
  1286	     1	  1000	  1000	  1000
  1287	     1	  1000	  1000	  1000
  1289	     1	  1000	  1000	  1000
  1291	     1	  1000	  1000	  1000
  1292	     1	  1000	  1000	  1000
  1294	     1	  1000	  1000	  1000
  1296	     1	  1000	  1000	  1000
  1297	     1	  1000	  1000	  1000
  1299	     1	  1000	  1000	  1000
  1301	     1	  1000	  1000	  1000
  1302	     1	  1000	  1000	  1000
  1304	     1	  1000	  1000	  1000
  1306	     1	  1000	  1000	  1000
  1307	     1	  1000	  1000	  1000
  1309	     1	  1000	  1000	  1000
  1311	     1	  1000	  1000	  1000
  1312	     1	  1000	  1000	  1000
  1314	     1	  1000	  1000	  1000
  1316	     1	  1000	  1000	  1000
  1317	     1	  1000	  1000	  1000
  1319	     1	  1000	  1000	  1000
  1321	     1	  1000	  1000	  1000
  1322	     1	  1000	  1000	  1000
  1324	     1	  1000	  1000	  1000
  1326	     1	  1000	  1000	  1000
  1327	     1	  1000	  1000	  1000
  1329	     1	  1000	  1000	  1000
  1331	     1	  1000	  1000	  1000
  1332	     1	  1000	  1000	  1000
  1334	     1	  1000	  1000	  1000
  1336	     1	  1000	  1000	  1000
  1337	     1	  1000	  1000	  1000
  1339	     1	  1000	  1000	  1000
  1341	     1	  1000	  1000	  1000
  1342	     1	  1000	  1000	  1000
  1344	     1	  1000	  1000	  1000
  1346	     1	  1000	  1000	  1000
  1347	     1	  1000	  1000	  1000
  1349	     1	  1000	  1000	  1000
  1351	     1	  1000	  1000	  1000
  1352	     1	  1000	  1000	  1000
  1354	     1	  1000	  1000	  1000
  1356	     1	  1000	  1000	  1000
  1357	     1	  1000	  1000	  1000
  1359	     1	  1000	  1000	  1000
  1361	     1	  1000	  1000	  1000
  1362	     1	  1000	  1000	  1000
  1364	     1	  1000	  1000	  1000
  1366	     1	  1000	  1000	  1000
  1367	     1	  1000	  1000	  1000
  1369	     1	  1000	  1000	  1000
  1371	     1	  1000	  1000	  1000
  1372	     1	  1000	  1000	  1000
  1374	     1	  1000	  1000	  1000
  1376	     1	  1000	  1000	  1000
  1377	     1	  1000	  1000	  1000
  1379	     1	  1000	  1000	  1000
  1381	     1	  1000	  1000	  1000
  1382	     1	  1000	  1000	  1000
  1384	     1	  1000	  1000	  1000
  1386	     1	  1000	  1000	  1000
  1387	     1	  1000	  1000	  1000
  1389	     1	  1000	  1000	  1000
  1391	     1	  1000	  1000	  1000
  1392	     1	  1000	  1000	  1000
  1394	     1	  1000	  1000	  1000
  1396	     1	  1000	  1000	  1000
  1397	     1	  1000	  1000	  1000
  1399	     1	  1000	  1000	  1000
  1401	     1	  1000	  1000	  1000
  1402	     1	  1000	  1000	  1000
  1404	     1	  1000	  1000	  1000
  1406	     1	  1000	  1000	  1000
  1407	     1	  1000	  1000	  1000
  1409	     1	  1000	  1000	  1000
  1411	     1	  1000	  1000	  1000
  1412	     1	  1000	  1000	  1000
  1414	     1	  1000	  1000	  1000
  1416	     1	  1000	  1000	  1000
  1417	     1	  1000	  1000	  1000
  1419	     1	  1000	  1000	  1000
  1421	     1	  1000	  1000	  1000
  1422	     1	  1000	  1000	  1000
  1424	     1	  1000	  1000	  1000
  1426	     1	  1000	  1000	  1000
  1427	     1	  1000	  1000	  1000
  1429	     1	  1000	  1000	  1000
  1431	     1	  1000	  1000	  1000
  1432	     1	  1000	  1000	  1000
  1434	     1	  1000	  1000	  1000
  1436	     1	  1000	  1000	  1000
  1437	     1	  1000	  1000	  1000
  1439	     1	  1000	  1000	  1000
  1441	     1	  1000	  1000	  1000
  1442	     1	  1000	  1000	  1000
  1444	     1	  1000	  1000	  1000
  1446	     1	  1000	  1000	  1000
  1447	     1	  1000	  1000	  1000
  1449	     1	  1000	  1000	  1000
  1451	     1	  1000	  1000	  1000
  1452	     1	  1000	  1000	  1000
  1454	     1	  1000	  1000	  1000
  1456	     1	  1000	  1000	  1000
  1457	     1	  1000	  1000	  1000
  1459	     1	  1000	  1000	  1000
  1461	     1	  1000	  1000	  1000
  1462	     1	  1000	  1000	  1000
  1464	     1	  1000	  1000	  1000
  1466	     1	  1000	  1000	  1000
  1467	     1	  1000	  1000	  1000
  1469	     1	  1000	  1000	  1000
  1471	     1	  1000	  1000	  1000
  1472	     1	  1000	  1000	  1000
  1474	     1	  1000	  1000	  1000
  1476	     1	  1000	  1000	  1000
  1477	     1	  1000	  1000	  1000
  1479	     1	  1000	  1000	  1000
  1481	     1	  1000	  1000	  1000
  1482	     1	  1000	  1000	  1000
  1484	     1	  1000	  1000	  1000
  1486	     1	  1000	  1000	  1000
  1487	     1	  1000	  1000	  1000
  1489	     1	  1000	  1000	  1000
  1491	     1	  1000	  1000	  1000
  1492	     1	  1000	  1000	  1000
  1494	     1	  1000	  1000	  1000
  1496	     1	  1000	  1000	  1000
  1497	     1	  1000	  1000	  1000
  1499	     1	  1000	  1000	  1000
  1501	     1	  1000	  1000	  1000
  1502	     1	  1000	  1000	  1000
  1504	     1	  1000	  1000	  1000
  1506	     1	  1000	  1000	  1000
  1507	     1	  1000	  1000	  1000
  1509	     1	  1000	  1000	  1000
  1511	     1	  1000	  1000	  1000
  1512	     1	  1000	  1000	  1000
  1514	     1	  1000	  1000	  1000
  1516	     1	  1000	  1000	  1000
  1517	     1	  1000	  1000	  1000
  1519	     1	  1000	  1000	  1000
  1521	     1	  1000	  1000	  1000
  1522	     1	  1000	  1000	  1000
  1524	     1	  1000	  1000	  1000
  1526	     1	  1000	  1000	  1000
  1527	     1	  1000	  1000	  1000
  1529	     1	  1000	  1000	  1000
  1531	     1	  1000	  1000	  1000
  1532	     1	  1000	  1000	  1000
  1534	     1	  1000	  1000	  1000
  1536	     1	  1000	  1000	  1000
  1537	     1	  1000	  1000	  1000
  1539	     1	  1000	  1000	  1000
  1541	     1	  1000	  1000	  1000
  1542	     1	  1000	  1000	  1000
  1544	     1	  1000	  1000	  1000
  1546	     1	  1000	  1000	  1000
  1547	     1	  1000	  1000	  1000
  1549	     1	  1000	  1000	  1000
  1551	     1	  1000	  1000	  1000
  1552	     1	  1000	  1000	  1000
  1554	     1	  1000	  1000	  1000
  1556	     1	  1000	  1000	  1000
  1557	     1	  1000	  1000	  1000
  1559	     1	  1000	  1000	  1000
  1561	     1	  1000	  1000	  1000
  1562	     1	  1000	  1000	  1000
  1564	     1	  1000	  1000	  1000
  1566	     1	  1000	  1000	  1000
  1567	     1	  1000	  1000	  1000
  1569	     1	  1000	  1000	  1000
  1571	     1	  1000	  1000	  1000
  1572	     1	  1000	  1000	  1000
  1574	     1	  1000	  1000	  1000
  1576	     1	  1000	  1000	  1000
  1577	     1	  1000	  1000	  1000
  1579	     1	  1000	  1000	  1000
  1581	     1	  1000	  1000	  1000
  1582	     1	  1000	  1000	  1000
  1584	     1	  1000	  1000	  1000
  1586	     1	  1000	  1000	  1000
  1587	     1	  1000	  1000	  1000
  1589	     1	  1000	  1000	  1000
  1591	     1	  1000	  1000	  1000
  1592	     1	  1000	  1000	  1000
  1594	     1	  1000	  1000	  1000
  1596	     1	  1000	  1000	  1000
  1597	     1	  1000	  1000	  1000
  1599	     1	  1000	  1000	  1000
  1601	     1	  1000	  1000	  1000
  1602	     1	  1000	  1000	  1000
  1604	     1	  1000	  1000	  1000
  1606	     1	  1000	  1000	  1000
  1607	     1	  1000	  1000	  1000
  1609	     1	  1000	  1000	  1000
  1611	     1	  1000	  1000	  1000
  1612	     1	  1000	  1000	  1000
  1614	     1	  1000	  1000	  1000
  1616	     1	  1000	  1000	  1000
  1617	     1	  1000	  1000	  1000
  1619	     1	  1000	  1000	  1000
  1621	     1	  1000	  1000	  1000
  1622	     1	  1000	  1000	  1000
  1624	     1	  1000	  1000	  1000
  1626	     1	  1000	  1000	  1000
  1627	     1	  1000	  1000	  1000
  1629	     1	  1000	  1000	  1000
  1631	     1	  1000	  1000	  1000
  1632	     1	  1000	  1000	  1000
  1634	     1	  1000	  1000	  1000
  1636	     1	  1000	  1000	  1000
  1637	     1	  1000	  1000	  1000
  1639	     1	  1000	  1000	  1000
  1641	     1	  1000	  1000	  1000
  1642	     1	  1000	  1000	  1000
  1644	     1	  1000	  1000	  1000
  1646	     1	  1000	  1000	  1000
  1647	     1	  1000	  1000	  1000
  1649	     1	  1000	  1000	  1000
  1651	     1	  1000	  1000	  1000
  1652	     1	  1000	  1000	  1000
  1654	     1	  1000	  1000	  1000
  1656	     1	  1000	  1000	  1000
  1657	     1	  1000	  1000	  1000
  1659	     1	  1000	  1000	  1000
  1661	     1	  1000	  1000	  1000
  1662	     1	  1000	  1000	  1000
  1664	     1	  1000	  1000	  1000
  1666	     1	  1000	  1000	  1000
  1667	     1	  1000	  1000	  1000
  1669	     1	  1000	  1000	  1000
  1671	     1	  1000	  1000	  1000
  1672	     1	  1000	  1000	  1000
  1674	     1	  1000	  1000	  1000
  1676	     1	  1000	  1000	  1000
  1677	     1	  1000	  1000	  1000
  1679	     1	  1000	  1000	  1000
  1681	     1	  1000	  1000	  1000
  1682	     1	  1000	  1000	  1000
  1684	     1	  1000	  1000	  1000
  1686	     1	  1000	  1000	  1000
  1687	     1	  1000	  1000	  1000
  1689	     1	  1000	  1000	  1000
  1691	     1	  1000	  1000	  1000
  1692	     1	  1000	  1000	  1000
  1694	     1	  1000	  1000	  1000
  1696	     1	  1000	  1000	  1000
  1697	     1	  1000	  1000	  1000
  1699	     1	  1000	  1000	  1000
  1701	     1	  1000	  1000	  1000
  1702	     1	  1000	  1000	  1000
  1704	     1	  1000	  1000	  1000
  1706	     1	  1000	  1000	  1000
  1707	     1	  1000	  1000	  1000
  1709	     1	  1000	  1000	  1000
  1711	     1	  1000	  1000	  1000
  1712	     1	  1000	  1000	  1000
  1714	     1	  1000	  1000	  1000
  1716	     1	  1000	  1000	  1000
  1717	     1	  1000	  1000	  1000
  1719	     1	  1000	  1000	  1000
  1721	     1	  1000	  1000	  1000
  1722	     1	  1000	  1000	  1000
  1724	     1	  1000	  1000	  1000
  1726	     1	  1000	  1000	  1000
  1727	     1	  1000	  1000	  1000
  1729	     1	  1000	  1000	  1000
  1731	     1	  1000	  1000	  1000
  1732	     1	  1000	  1000	  1000
  1734	     1	  1000	  1000	  1000
  1736	     1	  1000	  1000	  1000
  1737	     1	  1000	  1000	  1000
  1739	     1	  1000	  1000	  1000
  1741	     1	  1000	  1000	  1000
  1742	     1	  1000	  1000	  1000
  1744	     1	  1000	  1000	  1000
  1746	     1	  1000	  1000	  1000
  1747	     1	  1000	  1000	  1000
  1749	     1	  1000	  1000	  1000
  1751	     1	  1000	  1000	  1000
  1752	     1	  1000	  1000	  1000
  1754	     1	  1000	  1000	  1000
  1756	     1	  1000	  1000	  1000
  1757	     1	  1000	  1000	  1000
  1759	     1	  1000	  1000	  1000
  1761	     1	  1000	  1000	  1000
  1762	     1	  1000	  1000	  1000
  1764	     1	  1000	  1000	  1000
  1766	     1	  1000	  1000	  1000
  1767	     1	  1000	  1000	  1000
  1769	     1	  1000	  1000	  1000
  1771	     1	  1000	  1000	  1000
  1772	     1	  1000	  1000	  1000
  1774	     1	  1000	  1000	  1000
  1776	     1	  1000	  1000	  1000
  1777	     1	  1000	  1000	  1000
  1779	     1	  1000	  1000	  1000
  1781	     1	  1000	  1000	  1000
  1782	     1	  1000	  1000	  1000
  1784	     1	  1000	  1000	  1000
  1786	     1	  1000	  1000	  1000
  1787	     1	  1000	  1000	  1000
  1789	     1	  1000	  1000	  1000
  1791	     1	  1000	  1000	  1000
  1792	     1	  1000	  1000	  1000
  1794	     1	  1000	  1000	  1000
  1796	     1	  1000	  1000	  1000
  1797	     1	  1000	  1000	  1000
  1799	     1	  1000	  1000	  1000
#endif 


#ifdef POSRES_XYZ 
[ position_restraints ] 
; atom  type      fx      fy      fz
     1	     1	   500	   500	   500
     2	     1	   500	   500	   500
     4	     1	   500	   500	   500
     6	     1	   500	   500	   500
     7	     1	   500	   500	   500
     9	     1	   500	   500	   500
    11	     1	   500	   500	   500
    12	     1	   500	   500	   500
    14	     1	   500	   500	   500
    16	     1	   500	   500	   500
    17	     1	   500	   500	   500
    19	     1	   500	   500	   500
    21	     1	   500	   500	   500
    22	     1	   500	   500	   500
    24	     1	   500	   500	   500
    26	     1	   500	   500	   500
    27	     1	   500	   500	   500
    29	     1	   500	   500	   500
    31	     1	   500	   500	   500
    32	     1	   500	   500	   500
    34	     1	   500	   500	   500
    36	     1	   500	   500	   500
    37	     1	   500	   500	   500
    39	     1	   500	   500	   500
    41	     1	   500	   500	   500
    42	     1	   500	   500	   500
    44	     1	   500	   500	   500
    46	     1	   500	   500	   500
    47	     1	   500	   500	   500
    49	     1	   500	   500	   500
    51	     1	   500	   500	   500
    52	     1	   500	   500	   500
    54	     1	   500	   500	   500
    56	     1	   500	   500	   500
    57	     1	   500	   500	   500
    59	     1	   500	   500	   500
    61	     1	   500	   500	   500
    62	     1	   500	   500	   500
    64	     1	   500	   500	   500
    66	     1	   500	   500	   500
    67	     1	   500	   500	   500
    69	     1	   500	   500	   500
    71	     1	   500	   500	   500
    72	     1	   500	   500	   500
    74	     1	   500	   500	   500
    76	     1	   500	   500	   500
    77	     1	   500	   500	   500
    79	     1	   500	   500	   500
    81	     1	   500	   500	   500
    82	     1	   500	   500	   500
    84	     1	   500	   500	   500
    86	     1	   500	   500	   500
    87	     1	   500	   500	   500
    89	     1	   500	   500	   500
    91	     1	   500	   500	   500
    92	     1	   500	   500	   500
    94	     1	   500	   500	   500
    96	     1	   500	   500	   500
    97	     1	   500	   500	   500
    99	     1	   500	   500	   500
   101	     1	   500	   500	   500
   102	     1	   500	   500	   500
   104	     1	   500	   500	   500
   106	     1	   500	   500	   500
   107	     1	   500	   500	   500
   109	     1	   500	   500	   500
   111	     1	   500	   500	   500
   112	     1	   500	   500	   500
   114	     1	   500	   500	   500
   116	     1	   500	   500	   500
   117	     1	   500	   500	   500
   119	     1	   500	   500	   500
   121	     1	   500	   500	   500
   122	     1	   500	   500	   500
   124	     1	   500	   500	   500
   126	     1	   500	   500	   500
   127	     1	   500	   500	   500
   129	     1	   500	   500	   500
   131	     1	   500	   500	   500
   132	     1	   500	   500	   500
   134	     1	   500	   500	   500
   136	     1	   500	   500	   500
   137	     1	   500	   500	   500
   139	     1	   500	   500	   500
   141	     1	   500	   500	   500
   142	     1	   500	   500	   500
   144	     1	   500	   500	   500
   146	     1	   500	   500	   500
   147	     1	   500	   500	   500
   149	     1	   500	   500	   500
   151	     1	   500	   500	   500
   152	     1	   500	   500	   500
   154	     1	   500	   500	   500
   156	     1	   500	   500	   500
   157	     1	   500	   500	   500
   159	     1	   500	   500	   500
   161	     1	   500	   500	   500
   162	     1	   500	   500	   500
   164	     1	   500	   500	   500
   166	     1	   500	   500	   500
   167	     1	   500	   500	   500
   169	     1	   500	   500	   500
   171	     1	   500	   500	   500
   172	     1	   500	   500	   500
   174	     1	   500	   500	   500
   176	     1	   500	   500	   500
   177	     1	   500	   500	   500
   179	     1	   500	   500	   500
   181	     1	   500	   500	   500
   182	     1	   500	   500	   500
   184	     1	   500	   500	   500
   186	     1	   500	   500	   500
   187	     1	   500	   500	   500
   189	     1	   500	   500	   500
   191	     1	   500	   500	   500
   192	     1	   500	   500	   500
   194	     1	   500	   500	   500
   196	     1	   500	   500	   500
   197	     1	   500	   500	   500
   199	     1	   500	   500	   500
   201	     1	   500	   500	   500
   202	     1	   500	   500	   500
   204	     1	   500	   500	   500
   206	     1	   500	   500	   500
   207	     1	   500	   500	   500
   209	     1	   500	   500	   500
   211	     1	   500	   500	   500
   212	     1	   500	   500	   500
   214	     1	   500	   500	   500
   216	     1	   500	   500	   500
   217	     1	   500	   500	   500
   219	     1	   500	   500	   500
   221	     1	   500	   500	   500
   222	     1	   500	   500	   500
   224	     1	   500	   500	   500
   226	     1	   500	   500	   500
   227	     1	   500	   500	   500
   229	     1	   500	   500	   500
   231	     1	   500	   500	   500
   232	     1	   500	   500	   500
   234	     1	   500	   500	   500
   236	     1	   500	   500	   500
   237	     1	   500	   500	   500
   239	     1	   500	   500	   500
   241	     1	   500	   500	   500
   242	     1	   500	   500	   500
   244	     1	   500	   500	   500
   246	     1	   500	   500	   500
   247	     1	   500	   500	   500
   249	     1	   500	   500	   500
   251	     1	   500	   500	   500
   252	     1	   500	   500	   500
   254	     1	   500	   500	   500
   256	     1	   500	   500	   500
   257	     1	   500	   500	   500
   259	     1	   500	   500	   500
   261	     1	   500	   500	   500
   262	     1	   500	   500	   500
   264	     1	   500	   500	   500
   266	     1	   500	   500	   500
   267	     1	   500	   500	   500
   269	     1	   500	   500	   500
   271	     1	   500	   500	   500
   272	     1	   500	   500	   500
   274	     1	   500	   500	   500
   276	     1	   500	   500	   500
   277	     1	   500	   500	   500
   279	     1	   500	   500	   500
   281	     1	   500	   500	   500
   282	     1	   500	   500	   500
   284	     1	   500	   500	   500
   286	     1	   500	   500	   500
   287	     1	   500	   500	   500
   289	     1	   500	   500	   500
   291	     1	   500	   500	   500
   292	     1	   500	   500	   500
   294	     1	   500	   500	   500
   296	     1	   500	   500	   500
   297	     1	   500	   500	   500
   299	     1	   500	   500	   500
   301	     1	   500	   500	   500
   302	     1	   500	   500	   500
   304	     1	   500	   500	   500
   306	     1	   500	   500	   500
   307	     1	   500	   500	   500
   309	     1	   500	   500	   500
   311	     1	   500	   500	   500
   312	     1	   500	   500	   500
   314	     1	   500	   500	   500
   316	     1	   500	   500	   500
   317	     1	   500	   500	   500
   319	     1	   500	   500	   500
   321	     1	   500	   500	   500
   322	     1	   500	   500	   500
   324	     1	   500	   500	   500
   326	     1	   500	   500	   500
   327	     1	   500	   500	   500
   329	     1	   500	   500	   500
   331	     1	   500	   500	   500
   332	     1	   500	   500	   500
   334	     1	   500	   500	   500
   336	     1	   500	   500	   500
   337	     1	   500	   500	   500
   339	     1	   500	   500	   500
   341	     1	   500	   500	   500
   342	     1	   500	   500	   500
   344	     1	   500	   500	   500
   346	     1	   500	   500	   500
   347	     1	   500	   500	   500
   349	     1	   500	   500	   500
   351	     1	   500	   500	   500
   352	     1	   500	   500	   500
   354	     1	   500	   500	   500
   356	     1	   500	   500	   500
   357	     1	   500	   500	   500
   359	     1	   500	   500	   500
   361	     1	   500	   500	   500
   362	     1	   500	   500	   500
   364	     1	   500	   500	   500
   366	     1	   500	   500	   500
   367	     1	   500	   500	   500
   369	     1	   500	   500	   500
   371	     1	   500	   500	   500
   372	     1	   500	   500	   500
   374	     1	   500	   500	   500
   376	     1	   500	   500	   500
   377	     1	   500	   500	   500
   379	     1	   500	   500	   500
   381	     1	   500	   500	   500
   382	     1	   500	   500	   500
   384	     1	   500	   500	   500
   386	     1	   500	   500	   500
   387	     1	   500	   500	   500
   389	     1	   500	   500	   500
   391	     1	   500	   500	   500
   392	     1	   500	   500	   500
   394	     1	   500	   500	   500
   396	     1	   500	   500	   500
   397	     1	   500	   500	   500
   399	     1	   500	   500	   500
   401	     1	   500	   500	   500
   402	     1	   500	   500	   500
   404	     1	   500	   500	   500
   406	     1	   500	   500	   500
   407	     1	   500	   500	   500
   409	     1	   500	   500	   500
   411	     1	   500	   500	   500
   412	     1	   500	   500	   500
   414	     1	   500	   500	   500
   416	     1	   500	   500	   500
   417	     1	   500	   500	   500
   419	     1	   500	   500	   500
   421	     1	   500	   500	   500
   422	     1	   500	   500	   500
   424	     1	   500	   500	   500
   426	     1	   500	   500	   500
   427	     1	   500	   500	   500
   429	     1	   500	   500	   500
   431	     1	   500	   500	   500
   432	     1	   500	   500	   500
   434	     1	   500	   500	   500
   436	     1	   500	   500	   500
   437	     1	   500	   500	   500
   439	     1	   500	   500	   500
   441	     1	   500	   500	   500
   442	     1	   500	   500	   500
   444	     1	   500	   500	   500
   446	     1	   500	   500	   500
   447	     1	   500	   500	   500
   449	     1	   500	   500	   500
   451	     1	   500	   500	   500
   452	     1	   500	   500	   500
   454	     1	   500	   500	   500
   456	     1	   500	   500	   500
   457	     1	   500	   500	   500
   459	     1	   500	   500	   500
   461	     1	   500	   500	   500
   462	     1	   500	   500	   500
   464	     1	   500	   500	   500
   466	     1	   500	   500	   500
   467	     1	   500	   500	   500
   469	     1	   500	   500	   500
   471	     1	   500	   500	   500
   472	     1	   500	   500	   500
   474	     1	   500	   500	   500
   476	     1	   500	   500	   500
   477	     1	   500	   500	   500
   479	     1	   500	   500	   500
   481	     1	   500	   500	   500
   482	     1	   500	   500	   500
   484	     1	   500	   500	   500
   486	     1	   500	   500	   500
   487	     1	   500	   500	   500
   489	     1	   500	   500	   500
   491	     1	   500	   500	   500
   492	     1	   500	   500	   500
   494	     1	   500	   500	   500
   496	     1	   500	   500	   500
   497	     1	   500	   500	   500
   499	     1	   500	   500	   500
   501	     1	   500	   500	   500
   502	     1	   500	   500	   500
   504	     1	   500	   500	   500
   506	     1	   500	   500	   500
   507	     1	   500	   500	   500
   509	     1	   500	   500	   500
   511	     1	   500	   500	   500
   512	     1	   500	   500	   500
   514	     1	   500	   500	   500
   516	     1	   500	   500	   500
   517	     1	   500	   500	   500
   519	     1	   500	   500	   500
   521	     1	   500	   500	   500
   522	     1	   500	   500	   500
   524	     1	   500	   500	   500
   526	     1	   500	   500	   500
   527	     1	   500	   500	   500
   529	     1	   500	   500	   500
   531	     1	   500	   500	   500
   532	     1	   500	   500	   500
   534	     1	   500	   500	   500
   536	     1	   500	   500	   500
   537	     1	   500	   500	   500
   539	     1	   500	   500	   500
   541	     1	   500	   500	   500
   542	     1	   500	   500	   500
   544	     1	   500	   500	   500
   546	     1	   500	   500	   500
   547	     1	   500	   500	   500
   549	     1	   500	   500	   500
   551	     1	   500	   500	   500
   552	     1	   500	   500	   500
   554	     1	   500	   500	   500
   556	     1	   500	   500	   500
   557	     1	   500	   500	   500
   559	     1	   500	   500	   500
   561	     1	   500	   500	   500
   562	     1	   500	   500	   500
   564	     1	   500	   500	   500
   566	     1	   500	   500	   500
   567	     1	   500	   500	   500
   569	     1	   500	   500	   500
   571	     1	   500	   500	   500
   572	     1	   500	   500	   500
   574	     1	   500	   500	   500
   576	     1	   500	   500	   500
   577	     1	   500	   500	   500
   579	     1	   500	   500	   500
   581	     1	   500	   500	   500
   582	     1	   500	   500	   500
   584	     1	   500	   500	   500
   586	     1	   500	   500	   500
   587	     1	   500	   500	   500
   589	     1	   500	   500	   500
   591	     1	   500	   500	   500
   592	     1	   500	   500	   500
   594	     1	   500	   500	   500
   596	     1	   500	   500	   500
   597	     1	   500	   500	   500
   599	     1	   500	   500	   500
   601	     1	   500	   500	   500
   602	     1	   500	   500	   500
   604	     1	   500	   500	   500
   606	     1	   500	   500	   500
   607	     1	   500	   500	   500
   609	     1	   500	   500	   500
   611	     1	   500	   500	   500
   612	     1	   500	   500	   500
   614	     1	   500	   500	   500
   616	     1	   500	   500	   500
   617	     1	   500	   500	   500
   619	     1	   500	   500	   500
   621	     1	   500	   500	   500
   622	     1	   500	   500	   500
   624	     1	   500	   500	   500
   626	     1	   500	   500	   500
   627	     1	   500	   500	   500
   629	     1	   500	   500	   500
   631	     1	   500	   500	   500
   632	     1	   500	   500	   500
   634	     1	   500	   500	   500
   636	     1	   500	   500	   500
   637	     1	   500	   500	   500
   639	     1	   500	   500	   500
   641	     1	   500	   500	   500
   642	     1	   500	   500	   500
   644	     1	   500	   500	   500
   646	     1	   500	   500	   500
   647	     1	   500	   500	   500
   649	     1	   500	   500	   500
   651	     1	   500	   500	   500
   652	     1	   500	   500	   500
   654	     1	   500	   500	   500
   656	     1	   500	   500	   500
   657	     1	   500	   500	   500
   659	     1	   500	   500	   500
   661	     1	   500	   500	   500
   662	     1	   500	   500	   500
   664	     1	   500	   500	   500
   666	     1	   500	   500	   500
   667	     1	   500	   500	   500
   669	     1	   500	   500	   500
   671	     1	   500	   500	   500
   672	     1	   500	   500	   500
   674	     1	   500	   500	   500
   676	     1	   500	   500	   500
   677	     1	   500	   500	   500
   679	     1	   500	   500	   500
   681	     1	   500	   500	   500
   682	     1	   500	   500	   500
   684	     1	   500	   500	   500
   686	     1	   500	   500	   500
   687	     1	   500	   500	   500
   689	     1	   500	   500	   500
   691	     1	   500	   500	   500
   692	     1	   500	   500	   500
   694	     1	   500	   500	   500
   696	     1	   500	   500	   500
   697	     1	   500	   500	   500
   699	     1	   500	   500	   500
   701	     1	   500	   500	   500
   702	     1	   500	   500	   500
   704	     1	   500	   500	   500
   706	     1	   500	   500	   500
   707	     1	   500	   500	   500
   709	     1	   500	   500	   500
   711	     1	   500	   500	   500
   712	     1	   500	   500	   500
   714	     1	   500	   500	   500
   716	     1	   500	   500	   500
   717	     1	   500	   500	   500
   719	     1	   500	   500	   500
   721	     1	   500	   500	   500
   722	     1	   500	   500	   500
   724	     1	   500	   500	   500
   726	     1	   500	   500	   500
   727	     1	   500	   500	   500
   729	     1	   500	   500	   500
   731	     1	   500	   500	   500
   732	     1	   500	   500	   500
   734	     1	   500	   500	   500
   736	     1	   500	   500	   500
   737	     1	   500	   500	   500
   739	     1	   500	   500	   500
   741	     1	   500	   500	   500
   742	     1	   500	   500	   500
   744	     1	   500	   500	   500
   746	     1	   500	   500	   500
   747	     1	   500	   500	   500
   749	     1	   500	   500	   500
   751	     1	   500	   500	   500
   752	     1	   500	   500	   500
   754	     1	   500	   500	   500
   756	     1	   500	   500	   500
   757	     1	   500	   500	   500
   759	     1	   500	   500	   500
   761	     1	   500	   500	   500
   762	     1	   500	   500	   500
   764	     1	   500	   500	   500
   766	     1	   500	   500	   500
   767	     1	   500	   500	   500
   769	     1	   500	   500	   500
   771	     1	   500	   500	   500
   772	     1	   500	   500	   500
   774	     1	   500	   500	   500
   776	     1	   500	   500	   500
   777	     1	   500	   500	   500
   779	     1	   500	   500	   500
   781	     1	   500	   500	   500
   782	     1	   500	   500	   500
   784	     1	   500	   500	   500
   786	     1	   500	   500	   500
   787	     1	   500	   500	   500
   789	     1	   500	   500	   500
   791	     1	   500	   500	   500
   792	     1	   500	   500	   500
   794	     1	   500	   500	   500
   796	     1	   500	   500	   500
   797	     1	   500	   500	   500
   799	     1	   500	   500	   500
   801	     1	   500	   500	   500
   802	     1	   500	   500	   500
   804	     1	   500	   500	   500
   806	     1	   500	   500	   500
   807	     1	   500	   500	   500
   809	     1	   500	   500	   500
   811	     1	   500	   500	   500
   812	     1	   500	   500	   500
   814	     1	   500	   500	   500
   816	     1	   500	   500	   500
   817	     1	   500	   500	   500
   819	     1	   500	   500	   500
   821	     1	   500	   500	   500
   822	     1	   500	   500	   500
   824	     1	   500	   500	   500
   826	     1	   500	   500	   500
   827	     1	   500	   500	   500
   829	     1	   500	   500	   500
   831	     1	   500	   500	   500
   832	     1	   500	   500	   500
   834	     1	   500	   500	   500
   836	     1	   500	   500	   500
   837	     1	   500	   500	   500
   839	     1	   500	   500	   500
   841	     1	   500	   500	   500
   842	     1	   500	   500	   500
   844	     1	   500	   500	   500
   846	     1	   500	   500	   500
   847	     1	   500	   500	   500
   849	     1	   500	   500	   500
   851	     1	   500	   500	   500
   852	     1	   500	   500	   500
   854	     1	   500	   500	   500
   856	     1	   500	   500	   500
   857	     1	   500	   500	   500
   859	     1	   500	   500	   500
   861	     1	   500	   500	   500
   862	     1	   500	   500	   500
   864	     1	   500	   500	   500
   866	     1	   500	   500	   500
   867	     1	   500	   500	   500
   869	     1	   500	   500	   500
   871	     1	   500	   500	   500
   872	     1	   500	   500	   500
   874	     1	   500	   500	   500
   876	     1	   500	   500	   500
   877	     1	   500	   500	   500
   879	     1	   500	   500	   500
   881	     1	   500	   500	   500
   882	     1	   500	   500	   500
   884	     1	   500	   500	   500
   886	     1	   500	   500	   500
   887	     1	   500	   500	   500
   889	     1	   500	   500	   500
   891	     1	   500	   500	   500
   892	     1	   500	   500	   500
   894	     1	   500	   500	   500
   896	     1	   500	   500	   500
   897	     1	   500	   500	   500
   899	     1	   500	   500	   500
   901	     1	   500	   500	   500
   902	     1	   500	   500	   500
   904	     1	   500	   500	   500
   906	     1	   500	   500	   500
   907	     1	   500	   500	   500
   909	     1	   500	   500	   500
   911	     1	   500	   500	   500
   912	     1	   500	   500	   500
   914	     1	   500	   500	   500
   916	     1	   500	   500	   500
   917	     1	   500	   500	   500
   919	     1	   500	   500	   500
   921	     1	   500	   500	   500
   922	     1	   500	   500	   500
   924	     1	   500	   500	   500
   926	     1	   500	   500	   500
   927	     1	   500	   500	   500
   929	     1	   500	   500	   500
   931	     1	   500	   500	   500
   932	     1	   500	   500	   500
   934	     1	   500	   500	   500
   936	     1	   500	   500	   500
   937	     1	   500	   500	   500
   939	     1	   500	   500	   500
   941	     1	   500	   500	   500
   942	     1	   500	   500	   500
   944	     1	   500	   500	   500
   946	     1	   500	   500	   500
   947	     1	   500	   500	   500
   949	     1	   500	   500	   500
   951	     1	   500	   500	   500
   952	     1	   500	   500	   500
   954	     1	   500	   500	   500
   956	     1	   500	   500	   500
   957	     1	   500	   500	   500
   959	     1	   500	   500	   500
   961	     1	   500	   500	   500
   962	     1	   500	   500	   500
   964	     1	   500	   500	   500
   966	     1	   500	   500	   500
   967	     1	   500	   500	   500
   969	     1	   500	   500	   500
   971	     1	   500	   500	   500
   972	     1	   500	   500	   500
   974	     1	   500	   500	   500
   976	     1	   500	   500	   500
   977	     1	   500	   500	   500
   979	     1	   500	   500	   500
   981	     1	   500	   500	   500
   982	     1	   500	   500	   500
   984	     1	   500	   500	   500
   986	     1	   500	   500	   500
   987	     1	   500	   500	   500
   989	     1	   500	   500	   500
   991	     1	   500	   500	   500
   992	     1	   500	   500	   500
   994	     1	   500	   500	   500
   996	     1	   500	   500	   500
   997	     1	   500	   500	   500
   999	     1	   500	   500	   500
  1001	     1	   500	   500	   500
  1002	     1	   500	   500	   500
  1004	     1	   500	   500	   500
  1006	     1	   500	   500	   500
  1007	     1	   500	   500	   500
  1009	     1	   500	   500	   500
  1011	     1	   500	   500	   500
  1012	     1	   500	   500	   500
  1014	     1	   500	   500	   500
  1016	     1	   500	   500	   500
  1017	     1	   500	   500	   500
  1019	     1	   500	   500	   500
  1021	     1	   500	   500	   500
  1022	     1	   500	   500	   500
  1024	     1	   500	   500	   500
  1026	     1	   500	   500	   500
  1027	     1	   500	   500	   500
  1029	     1	   500	   500	   500
  1031	     1	   500	   500	   500
  1032	     1	   500	   500	   500
  1034	     1	   500	   500	   500
  1036	     1	   500	   500	   500
  1037	     1	   500	   500	   500
  1039	     1	   500	   500	   500
  1041	     1	   500	   500	   500
  1042	     1	   500	   500	   500
  1044	     1	   500	   500	   500
  1046	     1	   500	   500	   500
  1047	     1	   500	   500	   500
  1049	     1	   500	   500	   500
  1051	     1	   500	   500	   500
  1052	     1	   500	   500	   500
  1054	     1	   500	   500	   500
  1056	     1	   500	   500	   500
  1057	     1	   500	   500	   500
  1059	     1	   500	   500	   500
  1061	     1	   500	   500	   500
  1062	     1	   500	   500	   500
  1064	     1	   500	   500	   500
  1066	     1	   500	   500	   500
  1067	     1	   500	   500	   500
  1069	     1	   500	   500	   500
  1071	     1	   500	   500	   500
  1072	     1	   500	   500	   500
  1074	     1	   500	   500	   500
  1076	     1	   500	   500	   500
  1077	     1	   500	   500	   500
  1079	     1	   500	   500	   500
  1081	     1	   500	   500	   500
  1082	     1	   500	   500	   500
  1084	     1	   500	   500	   500
  1086	     1	   500	   500	   500
  1087	     1	   500	   500	   500
  1089	     1	   500	   500	   500
  1091	     1	   500	   500	   500
  1092	     1	   500	   500	   500
  1094	     1	   500	   500	   500
  1096	     1	   500	   500	   500
  1097	     1	   500	   500	   500
  1099	     1	   500	   500	   500
  1101	     1	   500	   500	   500
  1102	     1	   500	   500	   500
  1104	     1	   500	   500	   500
  1106	     1	   500	   500	   500
  1107	     1	   500	   500	   500
  1109	     1	   500	   500	   500
  1111	     1	   500	   500	   500
  1112	     1	   500	   500	   500
  1114	     1	   500	   500	   500
  1116	     1	   500	   500	   500
  1117	     1	   500	   500	   500
  1119	     1	   500	   500	   500
  1121	     1	   500	   500	   500
  1122	     1	   500	   500	   500
  1124	     1	   500	   500	   500
  1126	     1	   500	   500	   500
  1127	     1	   500	   500	   500
  1129	     1	   500	   500	   500
  1131	     1	   500	   500	   500
  1132	     1	   500	   500	   500
  1134	     1	   500	   500	   500
  1136	     1	   500	   500	   500
  1137	     1	   500	   500	   500
  1139	     1	   500	   500	   500
  1141	     1	   500	   500	   500
  1142	     1	   500	   500	   500
  1144	     1	   500	   500	   500
  1146	     1	   500	   500	   500
  1147	     1	   500	   500	   500
  1149	     1	   500	   500	   500
  1151	     1	   500	   500	   500
  1152	     1	   500	   500	   500
  1154	     1	   500	   500	   500
  1156	     1	   500	   500	   500
  1157	     1	   500	   500	   500
  1159	     1	   500	   500	   500
  1161	     1	   500	   500	   500
  1162	     1	   500	   500	   500
  1164	     1	   500	   500	   500
  1166	     1	   500	   500	   500
  1167	     1	   500	   500	   500
  1169	     1	   500	   500	   500
  1171	     1	   500	   500	   500
  1172	     1	   500	   500	   500
  1174	     1	   500	   500	   500
  1176	     1	   500	   500	   500
  1177	     1	   500	   500	   500
  1179	     1	   500	   500	   500
  1181	     1	   500	   500	   500
  1182	     1	   500	   500	   500
  1184	     1	   500	   500	   500
  1186	     1	   500	   500	   500
  1187	     1	   500	   500	   500
  1189	     1	   500	   500	   500
  1191	     1	   500	   500	   500
  1192	     1	   500	   500	   500
  1194	     1	   500	   500	   500
  1196	     1	   500	   500	   500
  1197	     1	   500	   500	   500
  1199	     1	   500	   500	   500
  1201	     1	   500	   500	   500
  1202	     1	   500	   500	   500
  1204	     1	   500	   500	   500
  1206	     1	   500	   500	   500
  1207	     1	   500	   500	   500
  1209	     1	   500	   500	   500
  1211	     1	   500	   500	   500
  1212	     1	   500	   500	   500
  1214	     1	   500	   500	   500
  1216	     1	   500	   500	   500
  1217	     1	   500	   500	   500
  1219	     1	   500	   500	   500
  1221	     1	   500	   500	   500
  1222	     1	   500	   500	   500
  1224	     1	   500	   500	   500
  1226	     1	   500	   500	   500
  1227	     1	   500	   500	   500
  1229	     1	   500	   500	   500
  1231	     1	   500	   500	   500
  1232	     1	   500	   500	   500
  1234	     1	   500	   500	   500
  1236	     1	   500	   500	   500
  1237	     1	   500	   500	   500
  1239	     1	   500	   500	   500
  1241	     1	   500	   500	   500
  1242	     1	   500	   500	   500
  1244	     1	   500	   500	   500
  1246	     1	   500	   500	   500
  1247	     1	   500	   500	   500
  1249	     1	   500	   500	   500
  1251	     1	   500	   500	   500
  1252	     1	   500	   500	   500
  1254	     1	   500	   500	   500
  1256	     1	   500	   500	   500
  1257	     1	   500	   500	   500
  1259	     1	   500	   500	   500
  1261	     1	   500	   500	   500
  1262	     1	   500	   500	   500
  1264	     1	   500	   500	   500
  1266	     1	   500	   500	   500
  1267	     1	   500	   500	   500
  1269	     1	   500	   500	   500
  1271	     1	   500	   500	   500
  1272	     1	   500	   500	   500
  1274	     1	   500	   500	   500
  1276	     1	   500	   500	   500
  1277	     1	   500	   500	   500
  1279	     1	   500	   500	   500
  1281	     1	   500	   500	   500
  1282	     1	   500	   500	   500
  1284	     1	   500	   500	   500
  1286	     1	   500	   500	   500
  1287	     1	   500	   500	   500
  1289	     1	   500	   500	   500
  1291	     1	   500	   500	   500
  1292	     1	   500	   500	   500
  1294	     1	   500	   500	   500
  1296	     1	   500	   500	   500
  1297	     1	   500	   500	   500
  1299	     1	   500	   500	   500
  1301	     1	   500	   500	   500
  1302	     1	   500	   500	   500
  1304	     1	   500	   500	   500
  1306	     1	   500	   500	   500
  1307	     1	   500	   500	   500
  1309	     1	   500	   500	   500
  1311	     1	   500	   500	   500
  1312	     1	   500	   500	   500
  1314	     1	   500	   500	   500
  1316	     1	   500	   500	   500
  1317	     1	   500	   500	   500
  1319	     1	   500	   500	   500
  1321	     1	   500	   500	   500
  1322	     1	   500	   500	   500
  1324	     1	   500	   500	   500
  1326	     1	   500	   500	   500
  1327	     1	   500	   500	   500
  1329	     1	   500	   500	   500
  1331	     1	   500	   500	   500
  1332	     1	   500	   500	   500
  1334	     1	   500	   500	   500
  1336	     1	   500	   500	   500
  1337	     1	   500	   500	   500
  1339	     1	   500	   500	   500
  1341	     1	   500	   500	   500
  1342	     1	   500	   500	   500
  1344	     1	   500	   500	   500
  1346	     1	   500	   500	   500
  1347	     1	   500	   500	   500
  1349	     1	   500	   500	   500
  1351	     1	   500	   500	   500
  1352	     1	   500	   500	   500
  1354	     1	   500	   500	   500
  1356	     1	   500	   500	   500
  1357	     1	   500	   500	   500
  1359	     1	   500	   500	   500
  1361	     1	   500	   500	   500
  1362	     1	   500	   500	   500
  1364	     1	   500	   500	   500
  1366	     1	   500	   500	   500
  1367	     1	   500	   500	   500
  1369	     1	   500	   500	   500
  1371	     1	   500	   500	   500
  1372	     1	   500	   500	   500
  1374	     1	   500	   500	   500
  1376	     1	   500	   500	   500
  1377	     1	   500	   500	   500
  1379	     1	   500	   500	   500
  1381	     1	   500	   500	   500
  1382	     1	   500	   500	   500
  1384	     1	   500	   500	   500
  1386	     1	   500	   500	   500
  1387	     1	   500	   500	   500
  1389	     1	   500	   500	   500
  1391	     1	   500	   500	   500
  1392	     1	   500	   500	   500
  1394	     1	   500	   500	   500
  1396	     1	   500	   500	   500
  1397	     1	   500	   500	   500
  1399	     1	   500	   500	   500
  1401	     1	   500	   500	   500
  1402	     1	   500	   500	   500
  1404	     1	   500	   500	   500
  1406	     1	   500	   500	   500
  1407	     1	   500	   500	   500
  1409	     1	   500	   500	   500
  1411	     1	   500	   500	   500
  1412	     1	   500	   500	   500
  1414	     1	   500	   500	   500
  1416	     1	   500	   500	   500
  1417	     1	   500	   500	   500
  1419	     1	   500	   500	   500
  1421	     1	   500	   500	   500
  1422	     1	   500	   500	   500
  1424	     1	   500	   500	   500
  1426	     1	   500	   500	   500
  1427	     1	   500	   500	   500
  1429	     1	   500	   500	   500
  1431	     1	   500	   500	   500
  1432	     1	   500	   500	   500
  1434	     1	   500	   500	   500
  1436	     1	   500	   500	   500
  1437	     1	   500	   500	   500
  1439	     1	   500	   500	   500
  1441	     1	   500	   500	   500
  1442	     1	   500	   500	   500
  1444	     1	   500	   500	   500
  1446	     1	   500	   500	   500
  1447	     1	   500	   500	   500
  1449	     1	   500	   500	   500
  1451	     1	   500	   500	   500
  1452	     1	   500	   500	   500
  1454	     1	   500	   500	   500
  1456	     1	   500	   500	   500
  1457	     1	   500	   500	   500
  1459	     1	   500	   500	   500
  1461	     1	   500	   500	   500
  1462	     1	   500	   500	   500
  1464	     1	   500	   500	   500
  1466	     1	   500	   500	   500
  1467	     1	   500	   500	   500
  1469	     1	   500	   500	   500
  1471	     1	   500	   500	   500
  1472	     1	   500	   500	   500
  1474	     1	   500	   500	   500
  1476	     1	   500	   500	   500
  1477	     1	   500	   500	   500
  1479	     1	   500	   500	   500
  1481	     1	   500	   500	   500
  1482	     1	   500	   500	   500
  1484	     1	   500	   500	   500
  1486	     1	   500	   500	   500
  1487	     1	   500	   500	   500
  1489	     1	   500	   500	   500
  1491	     1	   500	   500	   500
  1492	     1	   500	   500	   500
  1494	     1	   500	   500	   500
  1496	     1	   500	   500	   500
  1497	     1	   500	   500	   500
  1499	     1	   500	   500	   500
  1501	     1	   500	   500	   500
  1502	     1	   500	   500	   500
  1504	     1	   500	   500	   500
  1506	     1	   500	   500	   500
  1507	     1	   500	   500	   500
  1509	     1	   500	   500	   500
  1511	     1	   500	   500	   500
  1512	     1	   500	   500	   500
  1514	     1	   500	   500	   500
  1516	     1	   500	   500	   500
  1517	     1	   500	   500	   500
  1519	     1	   500	   500	   500
  1521	     1	   500	   500	   500
  1522	     1	   500	   500	   500
  1524	     1	   500	   500	   500
  1526	     1	   500	   500	   500
  1527	     1	   500	   500	   500
  1529	     1	   500	   500	   500
  1531	     1	   500	   500	   500
  1532	     1	   500	   500	   500
  1534	     1	   500	   500	   500
  1536	     1	   500	   500	   500
  1537	     1	   500	   500	   500
  1539	     1	   500	   500	   500
  1541	     1	   500	   500	   500
  1542	     1	   500	   500	   500
  1544	     1	   500	   500	   500
  1546	     1	   500	   500	   500
  1547	     1	   500	   500	   500
  1549	     1	   500	   500	   500
  1551	     1	   500	   500	   500
  1552	     1	   500	   500	   500
  1554	     1	   500	   500	   500
  1556	     1	   500	   500	   500
  1557	     1	   500	   500	   500
  1559	     1	   500	   500	   500
  1561	     1	   500	   500	   500
  1562	     1	   500	   500	   500
  1564	     1	   500	   500	   500
  1566	     1	   500	   500	   500
  1567	     1	   500	   500	   500
  1569	     1	   500	   500	   500
  1571	     1	   500	   500	   500
  1572	     1	   500	   500	   500
  1574	     1	   500	   500	   500
  1576	     1	   500	   500	   500
  1577	     1	   500	   500	   500
  1579	     1	   500	   500	   500
  1581	     1	   500	   500	   500
  1582	     1	   500	   500	   500
  1584	     1	   500	   500	   500
  1586	     1	   500	   500	   500
  1587	     1	   500	   500	   500
  1589	     1	   500	   500	   500
  1591	     1	   500	   500	   500
  1592	     1	   500	   500	   500
  1594	     1	   500	   500	   500
  1596	     1	   500	   500	   500
  1597	     1	   500	   500	   500
  1599	     1	   500	   500	   500
  1601	     1	   500	   500	   500
  1602	     1	   500	   500	   500
  1604	     1	   500	   500	   500
  1606	     1	   500	   500	   500
  1607	     1	   500	   500	   500
  1609	     1	   500	   500	   500
  1611	     1	   500	   500	   500
  1612	     1	   500	   500	   500
  1614	     1	   500	   500	   500
  1616	     1	   500	   500	   500
  1617	     1	   500	   500	   500
  1619	     1	   500	   500	   500
  1621	     1	   500	   500	   500
  1622	     1	   500	   500	   500
  1624	     1	   500	   500	   500
  1626	     1	   500	   500	   500
  1627	     1	   500	   500	   500
  1629	     1	   500	   500	   500
  1631	     1	   500	   500	   500
  1632	     1	   500	   500	   500
  1634	     1	   500	   500	   500
  1636	     1	   500	   500	   500
  1637	     1	   500	   500	   500
  1639	     1	   500	   500	   500
  1641	     1	   500	   500	   500
  1642	     1	   500	   500	   500
  1644	     1	   500	   500	   500
  1646	     1	   500	   500	   500
  1647	     1	   500	   500	   500
  1649	     1	   500	   500	   500
  1651	     1	   500	   500	   500
  1652	     1	   500	   500	   500
  1654	     1	   500	   500	   500
  1656	     1	   500	   500	   500
  1657	     1	   500	   500	   500
  1659	     1	   500	   500	   500
  1661	     1	   500	   500	   500
  1662	     1	   500	   500	   500
  1664	     1	   500	   500	   500
  1666	     1	   500	   500	   500
  1667	     1	   500	   500	   500
  1669	     1	   500	   500	   500
  1671	     1	   500	   500	   500
  1672	     1	   500	   500	   500
  1674	     1	   500	   500	   500
  1676	     1	   500	   500	   500
  1677	     1	   500	   500	   500
  1679	     1	   500	   500	   500
  1681	     1	   500	   500	   500
  1682	     1	   500	   500	   500
  1684	     1	   500	   500	   500
  1686	     1	   500	   500	   500
  1687	     1	   500	   500	   500
  1689	     1	   500	   500	   500
  1691	     1	   500	   500	   500
  1692	     1	   500	   500	   500
  1694	     1	   500	   500	   500
  1696	     1	   500	   500	   500
  1697	     1	   500	   500	   500
  1699	     1	   500	   500	   500
  1701	     1	   500	   500	   500
  1702	     1	   500	   500	   500
  1704	     1	   500	   500	   500
  1706	     1	   500	   500	   500
  1707	     1	   500	   500	   500
  1709	     1	   500	   500	   500
  1711	     1	   500	   500	   500
  1712	     1	   500	   500	   500
  1714	     1	   500	   500	   500
  1716	     1	   500	   500	   500
  1717	     1	   500	   500	   500
  1719	     1	   500	   500	   500
  1721	     1	   500	   500	   500
  1722	     1	   500	   500	   500
  1724	     1	   500	   500	   500
  1726	     1	   500	   500	   500
  1727	     1	   500	   500	   500
  1729	     1	   500	   500	   500
  1731	     1	   500	   500	   500
  1732	     1	   500	   500	   500
  1734	     1	   500	   500	   500
  1736	     1	   500	   500	   500
  1737	     1	   500	   500	   500
  1739	     1	   500	   500	   500
  1741	     1	   500	   500	   500
  1742	     1	   500	   500	   500
  1744	     1	   500	   500	   500
  1746	     1	   500	   500	   500
  1747	     1	   500	   500	   500
  1749	     1	   500	   500	   500
  1751	     1	   500	   500	   500
  1752	     1	   500	   500	   500
  1754	     1	   500	   500	   500
  1756	     1	   500	   500	   500
  1757	     1	   500	   500	   500
  1759	     1	   500	   500	   500
  1761	     1	   500	   500	   500
  1762	     1	   500	   500	   500
  1764	     1	   500	   500	   500
  1766	     1	   500	   500	   500
  1767	     1	   500	   500	   500
  1769	     1	   500	   500	   500
  1771	     1	   500	   500	   500
  1772	     1	   500	   500	   500
  1774	     1	   500	   500	   500
  1776	     1	   500	   500	   500
  1777	     1	   500	   500	   500
  1779	     1	   500	   500	   500
  1781	     1	   500	   500	   500
  1782	     1	   500	   500	   500
  1784	     1	   500	   500	   500
  1786	     1	   500	   500	   500
  1787	     1	   500	   500	   500
  1789	     1	   500	   500	   500
  1791	     1	   500	   500	   500
  1792	     1	   500	   500	   500
  1794	     1	   500	   500	   500
  1796	     1	   500	   500	   500
  1797	     1	   500	   500	   500
  1799	     1	   500	   500	   500
#endif 


#ifdef POSRES_XY 
[ position_restraints ] 
; atom  type      fx      fy      fz
     1	     1	  1000	  1000	     0
     2	     1	  1000	  1000	     0
     4	     1	  1000	  1000	     0
     6	     1	  1000	  1000	     0
     7	     1	  1000	  1000	     0
     9	     1	  1000	  1000	     0
    11	     1	  1000	  1000	     0
    12	     1	  1000	  1000	     0
    14	     1	  1000	  1000	     0
    16	     1	  1000	  1000	     0
    17	     1	  1000	  1000	     0
    19	     1	  1000	  1000	     0
    21	     1	  1000	  1000	     0
    22	     1	  1000	  1000	     0
    24	     1	  1000	  1000	     0
    26	     1	  1000	  1000	     0
    27	     1	  1000	  1000	     0
    29	     1	  1000	  1000	     0
    31	     1	  1000	  1000	     0
    32	     1	  1000	  1000	     0
    34	     1	  1000	  1000	     0
    36	     1	  1000	  1000	     0
    37	     1	  1000	  1000	     0
    39	     1	  1000	  1000	     0
    41	     1	  1000	  1000	     0
    42	     1	  1000	  1000	     0
    44	     1	  1000	  1000	     0
    46	     1	  1000	  1000	     0
    47	     1	  1000	  1000	     0
    49	     1	  1000	  1000	     0
    51	     1	  1000	  1000	     0
    52	     1	  1000	  1000	     0
    54	     1	  1000	  1000	     0
    56	     1	  1000	  1000	     0
    57	     1	  1000	  1000	     0
    59	     1	  1000	  1000	     0
    61	     1	  1000	  1000	     0
    62	     1	  1000	  1000	     0
    64	     1	  1000	  1000	     0
    66	     1	  1000	  1000	     0
    67	     1	  1000	  1000	     0
    69	     1	  1000	  1000	     0
    71	     1	  1000	  1000	     0
    72	     1	  1000	  1000	     0
    74	     1	  1000	  1000	     0
    76	     1	  1000	  1000	     0
    77	     1	  1000	  1000	     0
    79	     1	  1000	  1000	     0
    81	     1	  1000	  1000	     0
    82	     1	  1000	  1000	     0
    84	     1	  1000	  1000	     0
    86	     1	  1000	  1000	     0
    87	     1	  1000	  1000	     0
    89	     1	  1000	  1000	     0
    91	     1	  1000	  1000	     0
    92	     1	  1000	  1000	     0
    94	     1	  1000	  1000	     0
    96	     1	  1000	  1000	     0
    97	     1	  1000	  1000	     0
    99	     1	  1000	  1000	     0
   101	     1	  1000	  1000	     0
   102	     1	  1000	  1000	     0
   104	     1	  1000	  1000	     0
   106	     1	  1000	  1000	     0
   107	     1	  1000	  1000	     0
   109	     1	  1000	  1000	     0
   111	     1	  1000	  1000	     0
   112	     1	  1000	  1000	     0
   114	     1	  1000	  1000	     0
   116	     1	  1000	  1000	     0
   117	     1	  1000	  1000	     0
   119	     1	  1000	  1000	     0
   121	     1	  1000	  1000	     0
   122	     1	  1000	  1000	     0
   124	     1	  1000	  1000	     0
   126	     1	  1000	  1000	     0
   127	     1	  1000	  1000	     0
   129	     1	  1000	  1000	     0
   131	     1	  1000	  1000	     0
   132	     1	  1000	  1000	     0
   134	     1	  1000	  1000	     0
   136	     1	  1000	  1000	     0
   137	     1	  1000	  1000	     0
   139	     1	  1000	  1000	     0
   141	     1	  1000	  1000	     0
   142	     1	  1000	  1000	     0
   144	     1	  1000	  1000	     0
   146	     1	  1000	  1000	     0
   147	     1	  1000	  1000	     0
   149	     1	  1000	  1000	     0
   151	     1	  1000	  1000	     0
   152	     1	  1000	  1000	     0
   154	     1	  1000	  1000	     0
   156	     1	  1000	  1000	     0
   157	     1	  1000	  1000	     0
   159	     1	  1000	  1000	     0
   161	     1	  1000	  1000	     0
   162	     1	  1000	  1000	     0
   164	     1	  1000	  1000	     0
   166	     1	  1000	  1000	     0
   167	     1	  1000	  1000	     0
   169	     1	  1000	  1000	     0
   171	     1	  1000	  1000	     0
   172	     1	  1000	  1000	     0
   174	     1	  1000	  1000	     0
   176	     1	  1000	  1000	     0
   177	     1	  1000	  1000	     0
   179	     1	  1000	  1000	     0
   181	     1	  1000	  1000	     0
   182	     1	  1000	  1000	     0
   184	     1	  1000	  1000	     0
   186	     1	  1000	  1000	     0
   187	     1	  1000	  1000	     0
   189	     1	  1000	  1000	     0
   191	     1	  1000	  1000	     0
   192	     1	  1000	  1000	     0
   194	     1	  1000	  1000	     0
   196	     1	  1000	  1000	     0
   197	     1	  1000	  1000	     0
   199	     1	  1000	  1000	     0
   201	     1	  1000	  1000	     0
   202	     1	  1000	  1000	     0
   204	     1	  1000	  1000	     0
   206	     1	  1000	  1000	     0
   207	     1	  1000	  1000	     0
   209	     1	  1000	  1000	     0
   211	     1	  1000	  1000	     0
   212	     1	  1000	  1000	     0
   214	     1	  1000	  1000	     0
   216	     1	  1000	  1000	     0
   217	     1	  1000	  1000	     0
   219	     1	  1000	  1000	     0
   221	     1	  1000	  1000	     0
   222	     1	  1000	  1000	     0
   224	     1	  1000	  1000	     0
   226	     1	  1000	  1000	     0
   227	     1	  1000	  1000	     0
   229	     1	  1000	  1000	     0
   231	     1	  1000	  1000	     0
   232	     1	  1000	  1000	     0
   234	     1	  1000	  1000	     0
   236	     1	  1000	  1000	     0
   237	     1	  1000	  1000	     0
   239	     1	  1000	  1000	     0
   241	     1	  1000	  1000	     0
   242	     1	  1000	  1000	     0
   244	     1	  1000	  1000	     0
   246	     1	  1000	  1000	     0
   247	     1	  1000	  1000	     0
   249	     1	  1000	  1000	     0
   251	     1	  1000	  1000	     0
   252	     1	  1000	  1000	     0
   254	     1	  1000	  1000	     0
   256	     1	  1000	  1000	     0
   257	     1	  1000	  1000	     0
   259	     1	  1000	  1000	     0
   261	     1	  1000	  1000	     0
   262	     1	  1000	  1000	     0
   264	     1	  1000	  1000	     0
   266	     1	  1000	  1000	     0
   267	     1	  1000	  1000	     0
   269	     1	  1000	  1000	     0
   271	     1	  1000	  1000	     0
   272	     1	  1000	  1000	     0
   274	     1	  1000	  1000	     0
   276	     1	  1000	  1000	     0
   277	     1	  1000	  1000	     0
   279	     1	  1000	  1000	     0
   281	     1	  1000	  1000	     0
   282	     1	  1000	  1000	     0
   284	     1	  1000	  1000	     0
   286	     1	  1000	  1000	     0
   287	     1	  1000	  1000	     0
   289	     1	  1000	  1000	     0
   291	     1	  1000	  1000	     0
   292	     1	  1000	  1000	     0
   294	     1	  1000	  1000	     0
   296	     1	  1000	  1000	     0
   297	     1	  1000	  1000	     0
   299	     1	  1000	  1000	     0
   301	     1	  1000	  1000	     0
   302	     1	  1000	  1000	     0
   304	     1	  1000	  1000	     0
   306	     1	  1000	  1000	     0
   307	     1	  1000	  1000	     0
   309	     1	  1000	  1000	     0
   311	     1	  1000	  1000	     0
   312	     1	  1000	  1000	     0
   314	     1	  1000	  1000	     0
   316	     1	  1000	  1000	     0
   317	     1	  1000	  1000	     0
   319	     1	  1000	  1000	     0
   321	     1	  1000	  1000	     0
   322	     1	  1000	  1000	     0
   324	     1	  1000	  1000	     0
   326	     1	  1000	  1000	     0
   327	     1	  1000	  1000	     0
   329	     1	  1000	  1000	     0
   331	     1	  1000	  1000	     0
   332	     1	  1000	  1000	     0
   334	     1	  1000	  1000	     0
   336	     1	  1000	  1000	     0
   337	     1	  1000	  1000	     0
   339	     1	  1000	  1000	     0
   341	     1	  1000	  1000	     0
   342	     1	  1000	  1000	     0
   344	     1	  1000	  1000	     0
   346	     1	  1000	  1000	     0
   347	     1	  1000	  1000	     0
   349	     1	  1000	  1000	     0
   351	     1	  1000	  1000	     0
   352	     1	  1000	  1000	     0
   354	     1	  1000	  1000	     0
   356	     1	  1000	  1000	     0
   357	     1	  1000	  1000	     0
   359	     1	  1000	  1000	     0
   361	     1	  1000	  1000	     0
   362	     1	  1000	  1000	     0
   364	     1	  1000	  1000	     0
   366	     1	  1000	  1000	     0
   367	     1	  1000	  1000	     0
   369	     1	  1000	  1000	     0
   371	     1	  1000	  1000	     0
   372	     1	  1000	  1000	     0
   374	     1	  1000	  1000	     0
   376	     1	  1000	  1000	     0
   377	     1	  1000	  1000	     0
   379	     1	  1000	  1000	     0
   381	     1	  1000	  1000	     0
   382	     1	  1000	  1000	     0
   384	     1	  1000	  1000	     0
   386	     1	  1000	  1000	     0
   387	     1	  1000	  1000	     0
   389	     1	  1000	  1000	     0
   391	     1	  1000	  1000	     0
   392	     1	  1000	  1000	     0
   394	     1	  1000	  1000	     0
   396	     1	  1000	  1000	     0
   397	     1	  1000	  1000	     0
   399	     1	  1000	  1000	     0
   401	     1	  1000	  1000	     0
   402	     1	  1000	  1000	     0
   404	     1	  1000	  1000	     0
   406	     1	  1000	  1000	     0
   407	     1	  1000	  1000	     0
   409	     1	  1000	  1000	     0
   411	     1	  1000	  1000	     0
   412	     1	  1000	  1000	     0
   414	     1	  1000	  1000	     0
   416	     1	  1000	  1000	     0
   417	     1	  1000	  1000	     0
   419	     1	  1000	  1000	     0
   421	     1	  1000	  1000	     0
   422	     1	  1000	  1000	     0
   424	     1	  1000	  1000	     0
   426	     1	  1000	  1000	     0
   427	     1	  1000	  1000	     0
   429	     1	  1000	  1000	     0
   431	     1	  1000	  1000	     0
   432	     1	  1000	  1000	     0
   434	     1	  1000	  1000	     0
   436	     1	  1000	  1000	     0
   437	     1	  1000	  1000	     0
   439	     1	  1000	  1000	     0
   441	     1	  1000	  1000	     0
   442	     1	  1000	  1000	     0
   444	     1	  1000	  1000	     0
   446	     1	  1000	  1000	     0
   447	     1	  1000	  1000	     0
   449	     1	  1000	  1000	     0
   451	     1	  1000	  1000	     0
   452	     1	  1000	  1000	     0
   454	     1	  1000	  1000	     0
   456	     1	  1000	  1000	     0
   457	     1	  1000	  1000	     0
   459	     1	  1000	  1000	     0
   461	     1	  1000	  1000	     0
   462	     1	  1000	  1000	     0
   464	     1	  1000	  1000	     0
   466	     1	  1000	  1000	     0
   467	     1	  1000	  1000	     0
   469	     1	  1000	  1000	     0
   471	     1	  1000	  1000	     0
   472	     1	  1000	  1000	     0
   474	     1	  1000	  1000	     0
   476	     1	  1000	  1000	     0
   477	     1	  1000	  1000	     0
   479	     1	  1000	  1000	     0
   481	     1	  1000	  1000	     0
   482	     1	  1000	  1000	     0
   484	     1	  1000	  1000	     0
   486	     1	  1000	  1000	     0
   487	     1	  1000	  1000	     0
   489	     1	  1000	  1000	     0
   491	     1	  1000	  1000	     0
   492	     1	  1000	  1000	     0
   494	     1	  1000	  1000	     0
   496	     1	  1000	  1000	     0
   497	     1	  1000	  1000	     0
   499	     1	  1000	  1000	     0
   501	     1	  1000	  1000	     0
   502	     1	  1000	  1000	     0
   504	     1	  1000	  1000	     0
   506	     1	  1000	  1000	     0
   507	     1	  1000	  1000	     0
   509	     1	  1000	  1000	     0
   511	     1	  1000	  1000	     0
   512	     1	  1000	  1000	     0
   514	     1	  1000	  1000	     0
   516	     1	  1000	  1000	     0
   517	     1	  1000	  1000	     0
   519	     1	  1000	  1000	     0
   521	     1	  1000	  1000	     0
   522	     1	  1000	  1000	     0
   524	     1	  1000	  1000	     0
   526	     1	  1000	  1000	     0
   527	     1	  1000	  1000	     0
   529	     1	  1000	  1000	     0
   531	     1	  1000	  1000	     0
   532	     1	  1000	  1000	     0
   534	     1	  1000	  1000	     0
   536	     1	  1000	  1000	     0
   537	     1	  1000	  1000	     0
   539	     1	  1000	  1000	     0
   541	     1	  1000	  1000	     0
   542	     1	  1000	  1000	     0
   544	     1	  1000	  1000	     0
   546	     1	  1000	  1000	     0
   547	     1	  1000	  1000	     0
   549	     1	  1000	  1000	     0
   551	     1	  1000	  1000	     0
   552	     1	  1000	  1000	     0
   554	     1	  1000	  1000	     0
   556	     1	  1000	  1000	     0
   557	     1	  1000	  1000	     0
   559	     1	  1000	  1000	     0
   561	     1	  1000	  1000	     0
   562	     1	  1000	  1000	     0
   564	     1	  1000	  1000	     0
   566	     1	  1000	  1000	     0
   567	     1	  1000	  1000	     0
   569	     1	  1000	  1000	     0
   571	     1	  1000	  1000	     0
   572	     1	  1000	  1000	     0
   574	     1	  1000	  1000	     0
   576	     1	  1000	  1000	     0
   577	     1	  1000	  1000	     0
   579	     1	  1000	  1000	     0
   581	     1	  1000	  1000	     0
   582	     1	  1000	  1000	     0
   584	     1	  1000	  1000	     0
   586	     1	  1000	  1000	     0
   587	     1	  1000	  1000	     0
   589	     1	  1000	  1000	     0
   591	     1	  1000	  1000	     0
   592	     1	  1000	  1000	     0
   594	     1	  1000	  1000	     0
   596	     1	  1000	  1000	     0
   597	     1	  1000	  1000	     0
   599	     1	  1000	  1000	     0
   601	     1	  1000	  1000	     0
   602	     1	  1000	  1000	     0
   604	     1	  1000	  1000	     0
   606	     1	  1000	  1000	     0
   607	     1	  1000	  1000	     0
   609	     1	  1000	  1000	     0
   611	     1	  1000	  1000	     0
   612	     1	  1000	  1000	     0
   614	     1	  1000	  1000	     0
   616	     1	  1000	  1000	     0
   617	     1	  1000	  1000	     0
   619	     1	  1000	  1000	     0
   621	     1	  1000	  1000	     0
   622	     1	  1000	  1000	     0
   624	     1	  1000	  1000	     0
   626	     1	  1000	  1000	     0
   627	     1	  1000	  1000	     0
   629	     1	  1000	  1000	     0
   631	     1	  1000	  1000	     0
   632	     1	  1000	  1000	     0
   634	     1	  1000	  1000	     0
   636	     1	  1000	  1000	     0
   637	     1	  1000	  1000	     0
   639	     1	  1000	  1000	     0
   641	     1	  1000	  1000	     0
   642	     1	  1000	  1000	     0
   644	     1	  1000	  1000	     0
   646	     1	  1000	  1000	     0
   647	     1	  1000	  1000	     0
   649	     1	  1000	  1000	     0
   651	     1	  1000	  1000	     0
   652	     1	  1000	  1000	     0
   654	     1	  1000	  1000	     0
   656	     1	  1000	  1000	     0
   657	     1	  1000	  1000	     0
   659	     1	  1000	  1000	     0
   661	     1	  1000	  1000	     0
   662	     1	  1000	  1000	     0
   664	     1	  1000	  1000	     0
   666	     1	  1000	  1000	     0
   667	     1	  1000	  1000	     0
   669	     1	  1000	  1000	     0
   671	     1	  1000	  1000	     0
   672	     1	  1000	  1000	     0
   674	     1	  1000	  1000	     0
   676	     1	  1000	  1000	     0
   677	     1	  1000	  1000	     0
   679	     1	  1000	  1000	     0
   681	     1	  1000	  1000	     0
   682	     1	  1000	  1000	     0
   684	     1	  1000	  1000	     0
   686	     1	  1000	  1000	     0
   687	     1	  1000	  1000	     0
   689	     1	  1000	  1000	     0
   691	     1	  1000	  1000	     0
   692	     1	  1000	  1000	     0
   694	     1	  1000	  1000	     0
   696	     1	  1000	  1000	     0
   697	     1	  1000	  1000	     0
   699	     1	  1000	  1000	     0
   701	     1	  1000	  1000	     0
   702	     1	  1000	  1000	     0
   704	     1	  1000	  1000	     0
   706	     1	  1000	  1000	     0
   707	     1	  1000	  1000	     0
   709	     1	  1000	  1000	     0
   711	     1	  1000	  1000	     0
   712	     1	  1000	  1000	     0
   714	     1	  1000	  1000	     0
   716	     1	  1000	  1000	     0
   717	     1	  1000	  1000	     0
   719	     1	  1000	  1000	     0
   721	     1	  1000	  1000	     0
   722	     1	  1000	  1000	     0
   724	     1	  1000	  1000	     0
   726	     1	  1000	  1000	     0
   727	     1	  1000	  1000	     0
   729	     1	  1000	  1000	     0
   731	     1	  1000	  1000	     0
   732	     1	  1000	  1000	     0
   734	     1	  1000	  1000	     0
   736	     1	  1000	  1000	     0
   737	     1	  1000	  1000	     0
   739	     1	  1000	  1000	     0
   741	     1	  1000	  1000	     0
   742	     1	  1000	  1000	     0
   744	     1	  1000	  1000	     0
   746	     1	  1000	  1000	     0
   747	     1	  1000	  1000	     0
   749	     1	  1000	  1000	     0
   751	     1	  1000	  1000	     0
   752	     1	  1000	  1000	     0
   754	     1	  1000	  1000	     0
   756	     1	  1000	  1000	     0
   757	     1	  1000	  1000	     0
   759	     1	  1000	  1000	     0
   761	     1	  1000	  1000	     0
   762	     1	  1000	  1000	     0
   764	     1	  1000	  1000	     0
   766	     1	  1000	  1000	     0
   767	     1	  1000	  1000	     0
   769	     1	  1000	  1000	     0
   771	     1	  1000	  1000	     0
   772	     1	  1000	  1000	     0
   774	     1	  1000	  1000	     0
   776	     1	  1000	  1000	     0
   777	     1	  1000	  1000	     0
   779	     1	  1000	  1000	     0
   781	     1	  1000	  1000	     0
   782	     1	  1000	  1000	     0
   784	     1	  1000	  1000	     0
   786	     1	  1000	  1000	     0
   787	     1	  1000	  1000	     0
   789	     1	  1000	  1000	     0
   791	     1	  1000	  1000	     0
   792	     1	  1000	  1000	     0
   794	     1	  1000	  1000	     0
   796	     1	  1000	  1000	     0
   797	     1	  1000	  1000	     0
   799	     1	  1000	  1000	     0
   801	     1	  1000	  1000	     0
   802	     1	  1000	  1000	     0
   804	     1	  1000	  1000	     0
   806	     1	  1000	  1000	     0
   807	     1	  1000	  1000	     0
   809	     1	  1000	  1000	     0
   811	     1	  1000	  1000	     0
   812	     1	  1000	  1000	     0
   814	     1	  1000	  1000	     0
   816	     1	  1000	  1000	     0
   817	     1	  1000	  1000	     0
   819	     1	  1000	  1000	     0
   821	     1	  1000	  1000	     0
   822	     1	  1000	  1000	     0
   824	     1	  1000	  1000	     0
   826	     1	  1000	  1000	     0
   827	     1	  1000	  1000	     0
   829	     1	  1000	  1000	     0
   831	     1	  1000	  1000	     0
   832	     1	  1000	  1000	     0
   834	     1	  1000	  1000	     0
   836	     1	  1000	  1000	     0
   837	     1	  1000	  1000	     0
   839	     1	  1000	  1000	     0
   841	     1	  1000	  1000	     0
   842	     1	  1000	  1000	     0
   844	     1	  1000	  1000	     0
   846	     1	  1000	  1000	     0
   847	     1	  1000	  1000	     0
   849	     1	  1000	  1000	     0
   851	     1	  1000	  1000	     0
   852	     1	  1000	  1000	     0
   854	     1	  1000	  1000	     0
   856	     1	  1000	  1000	     0
   857	     1	  1000	  1000	     0
   859	     1	  1000	  1000	     0
   861	     1	  1000	  1000	     0
   862	     1	  1000	  1000	     0
   864	     1	  1000	  1000	     0
   866	     1	  1000	  1000	     0
   867	     1	  1000	  1000	     0
   869	     1	  1000	  1000	     0
   871	     1	  1000	  1000	     0
   872	     1	  1000	  1000	     0
   874	     1	  1000	  1000	     0
   876	     1	  1000	  1000	     0
   877	     1	  1000	  1000	     0
   879	     1	  1000	  1000	     0
   881	     1	  1000	  1000	     0
   882	     1	  1000	  1000	     0
   884	     1	  1000	  1000	     0
   886	     1	  1000	  1000	     0
   887	     1	  1000	  1000	     0
   889	     1	  1000	  1000	     0
   891	     1	  1000	  1000	     0
   892	     1	  1000	  1000	     0
   894	     1	  1000	  1000	     0
   896	     1	  1000	  1000	     0
   897	     1	  1000	  1000	     0
   899	     1	  1000	  1000	     0
   901	     1	  1000	  1000	     0
   902	     1	  1000	  1000	     0
   904	     1	  1000	  1000	     0
   906	     1	  1000	  1000	     0
   907	     1	  1000	  1000	     0
   909	     1	  1000	  1000	     0
   911	     1	  1000	  1000	     0
   912	     1	  1000	  1000	     0
   914	     1	  1000	  1000	     0
   916	     1	  1000	  1000	     0
   917	     1	  1000	  1000	     0
   919	     1	  1000	  1000	     0
   921	     1	  1000	  1000	     0
   922	     1	  1000	  1000	     0
   924	     1	  1000	  1000	     0
   926	     1	  1000	  1000	     0
   927	     1	  1000	  1000	     0
   929	     1	  1000	  1000	     0
   931	     1	  1000	  1000	     0
   932	     1	  1000	  1000	     0
   934	     1	  1000	  1000	     0
   936	     1	  1000	  1000	     0
   937	     1	  1000	  1000	     0
   939	     1	  1000	  1000	     0
   941	     1	  1000	  1000	     0
   942	     1	  1000	  1000	     0
   944	     1	  1000	  1000	     0
   946	     1	  1000	  1000	     0
   947	     1	  1000	  1000	     0
   949	     1	  1000	  1000	     0
   951	     1	  1000	  1000	     0
   952	     1	  1000	  1000	     0
   954	     1	  1000	  1000	     0
   956	     1	  1000	  1000	     0
   957	     1	  1000	  1000	     0
   959	     1	  1000	  1000	     0
   961	     1	  1000	  1000	     0
   962	     1	  1000	  1000	     0
   964	     1	  1000	  1000	     0
   966	     1	  1000	  1000	     0
   967	     1	  1000	  1000	     0
   969	     1	  1000	  1000	     0
   971	     1	  1000	  1000	     0
   972	     1	  1000	  1000	     0
   974	     1	  1000	  1000	     0
   976	     1	  1000	  1000	     0
   977	     1	  1000	  1000	     0
   979	     1	  1000	  1000	     0
   981	     1	  1000	  1000	     0
   982	     1	  1000	  1000	     0
   984	     1	  1000	  1000	     0
   986	     1	  1000	  1000	     0
   987	     1	  1000	  1000	     0
   989	     1	  1000	  1000	     0
   991	     1	  1000	  1000	     0
   992	     1	  1000	  1000	     0
   994	     1	  1000	  1000	     0
   996	     1	  1000	  1000	     0
   997	     1	  1000	  1000	     0
   999	     1	  1000	  1000	     0
  1001	     1	  1000	  1000	     0
  1002	     1	  1000	  1000	     0
  1004	     1	  1000	  1000	     0
  1006	     1	  1000	  1000	     0
  1007	     1	  1000	  1000	     0
  1009	     1	  1000	  1000	     0
  1011	     1	  1000	  1000	     0
  1012	     1	  1000	  1000	     0
  1014	     1	  1000	  1000	     0
  1016	     1	  1000	  1000	     0
  1017	     1	  1000	  1000	     0
  1019	     1	  1000	  1000	     0
  1021	     1	  1000	  1000	     0
  1022	     1	  1000	  1000	     0
  1024	     1	  1000	  1000	     0
  1026	     1	  1000	  1000	     0
  1027	     1	  1000	  1000	     0
  1029	     1	  1000	  1000	     0
  1031	     1	  1000	  1000	     0
  1032	     1	  1000	  1000	     0
  1034	     1	  1000	  1000	     0
  1036	     1	  1000	  1000	     0
  1037	     1	  1000	  1000	     0
  1039	     1	  1000	  1000	     0
  1041	     1	  1000	  1000	     0
  1042	     1	  1000	  1000	     0
  1044	     1	  1000	  1000	     0
  1046	     1	  1000	  1000	     0
  1047	     1	  1000	  1000	     0
  1049	     1	  1000	  1000	     0
  1051	     1	  1000	  1000	     0
  1052	     1	  1000	  1000	     0
  1054	     1	  1000	  1000	     0
  1056	     1	  1000	  1000	     0
  1057	     1	  1000	  1000	     0
  1059	     1	  1000	  1000	     0
  1061	     1	  1000	  1000	     0
  1062	     1	  1000	  1000	     0
  1064	     1	  1000	  1000	     0
  1066	     1	  1000	  1000	     0
  1067	     1	  1000	  1000	     0
  1069	     1	  1000	  1000	     0
  1071	     1	  1000	  1000	     0
  1072	     1	  1000	  1000	     0
  1074	     1	  1000	  1000	     0
  1076	     1	  1000	  1000	     0
  1077	     1	  1000	  1000	     0
  1079	     1	  1000	  1000	     0
  1081	     1	  1000	  1000	     0
  1082	     1	  1000	  1000	     0
  1084	     1	  1000	  1000	     0
  1086	     1	  1000	  1000	     0
  1087	     1	  1000	  1000	     0
  1089	     1	  1000	  1000	     0
  1091	     1	  1000	  1000	     0
  1092	     1	  1000	  1000	     0
  1094	     1	  1000	  1000	     0
  1096	     1	  1000	  1000	     0
  1097	     1	  1000	  1000	     0
  1099	     1	  1000	  1000	     0
  1101	     1	  1000	  1000	     0
  1102	     1	  1000	  1000	     0
  1104	     1	  1000	  1000	     0
  1106	     1	  1000	  1000	     0
  1107	     1	  1000	  1000	     0
  1109	     1	  1000	  1000	     0
  1111	     1	  1000	  1000	     0
  1112	     1	  1000	  1000	     0
  1114	     1	  1000	  1000	     0
  1116	     1	  1000	  1000	     0
  1117	     1	  1000	  1000	     0
  1119	     1	  1000	  1000	     0
  1121	     1	  1000	  1000	     0
  1122	     1	  1000	  1000	     0
  1124	     1	  1000	  1000	     0
  1126	     1	  1000	  1000	     0
  1127	     1	  1000	  1000	     0
  1129	     1	  1000	  1000	     0
  1131	     1	  1000	  1000	     0
  1132	     1	  1000	  1000	     0
  1134	     1	  1000	  1000	     0
  1136	     1	  1000	  1000	     0
  1137	     1	  1000	  1000	     0
  1139	     1	  1000	  1000	     0
  1141	     1	  1000	  1000	     0
  1142	     1	  1000	  1000	     0
  1144	     1	  1000	  1000	     0
  1146	     1	  1000	  1000	     0
  1147	     1	  1000	  1000	     0
  1149	     1	  1000	  1000	     0
  1151	     1	  1000	  1000	     0
  1152	     1	  1000	  1000	     0
  1154	     1	  1000	  1000	     0
  1156	     1	  1000	  1000	     0
  1157	     1	  1000	  1000	     0
  1159	     1	  1000	  1000	     0
  1161	     1	  1000	  1000	     0
  1162	     1	  1000	  1000	     0
  1164	     1	  1000	  1000	     0
  1166	     1	  1000	  1000	     0
  1167	     1	  1000	  1000	     0
  1169	     1	  1000	  1000	     0
  1171	     1	  1000	  1000	     0
  1172	     1	  1000	  1000	     0
  1174	     1	  1000	  1000	     0
  1176	     1	  1000	  1000	     0
  1177	     1	  1000	  1000	     0
  1179	     1	  1000	  1000	     0
  1181	     1	  1000	  1000	     0
  1182	     1	  1000	  1000	     0
  1184	     1	  1000	  1000	     0
  1186	     1	  1000	  1000	     0
  1187	     1	  1000	  1000	     0
  1189	     1	  1000	  1000	     0
  1191	     1	  1000	  1000	     0
  1192	     1	  1000	  1000	     0
  1194	     1	  1000	  1000	     0
  1196	     1	  1000	  1000	     0
  1197	     1	  1000	  1000	     0
  1199	     1	  1000	  1000	     0
  1201	     1	  1000	  1000	     0
  1202	     1	  1000	  1000	     0
  1204	     1	  1000	  1000	     0
  1206	     1	  1000	  1000	     0
  1207	     1	  1000	  1000	     0
  1209	     1	  1000	  1000	     0
  1211	     1	  1000	  1000	     0
  1212	     1	  1000	  1000	     0
  1214	     1	  1000	  1000	     0
  1216	     1	  1000	  1000	     0
  1217	     1	  1000	  1000	     0
  1219	     1	  1000	  1000	     0
  1221	     1	  1000	  1000	     0
  1222	     1	  1000	  1000	     0
  1224	     1	  1000	  1000	     0
  1226	     1	  1000	  1000	     0
  1227	     1	  1000	  1000	     0
  1229	     1	  1000	  1000	     0
  1231	     1	  1000	  1000	     0
  1232	     1	  1000	  1000	     0
  1234	     1	  1000	  1000	     0
  1236	     1	  1000	  1000	     0
  1237	     1	  1000	  1000	     0
  1239	     1	  1000	  1000	     0
  1241	     1	  1000	  1000	     0
  1242	     1	  1000	  1000	     0
  1244	     1	  1000	  1000	     0
  1246	     1	  1000	  1000	     0
  1247	     1	  1000	  1000	     0
  1249	     1	  1000	  1000	     0
  1251	     1	  1000	  1000	     0
  1252	     1	  1000	  1000	     0
  1254	     1	  1000	  1000	     0
  1256	     1	  1000	  1000	     0
  1257	     1	  1000	  1000	     0
  1259	     1	  1000	  1000	     0
  1261	     1	  1000	  1000	     0
  1262	     1	  1000	  1000	     0
  1264	     1	  1000	  1000	     0
  1266	     1	  1000	  1000	     0
  1267	     1	  1000	  1000	     0
  1269	     1	  1000	  1000	     0
  1271	     1	  1000	  1000	     0
  1272	     1	  1000	  1000	     0
  1274	     1	  1000	  1000	     0
  1276	     1	  1000	  1000	     0
  1277	     1	  1000	  1000	     0
  1279	     1	  1000	  1000	     0
  1281	     1	  1000	  1000	     0
  1282	     1	  1000	  1000	     0
  1284	     1	  1000	  1000	     0
  1286	     1	  1000	  1000	     0
  1287	     1	  1000	  1000	     0
  1289	     1	  1000	  1000	     0
  1291	     1	  1000	  1000	     0
  1292	     1	  1000	  1000	     0
  1294	     1	  1000	  1000	     0
  1296	     1	  1000	  1000	     0
  1297	     1	  1000	  1000	     0
  1299	     1	  1000	  1000	     0
  1301	     1	  1000	  1000	     0
  1302	     1	  1000	  1000	     0
  1304	     1	  1000	  1000	     0
  1306	     1	  1000	  1000	     0
  1307	     1	  1000	  1000	     0
  1309	     1	  1000	  1000	     0
  1311	     1	  1000	  1000	     0
  1312	     1	  1000	  1000	     0
  1314	     1	  1000	  1000	     0
  1316	     1	  1000	  1000	     0
  1317	     1	  1000	  1000	     0
  1319	     1	  1000	  1000	     0
  1321	     1	  1000	  1000	     0
  1322	     1	  1000	  1000	     0
  1324	     1	  1000	  1000	     0
  1326	     1	  1000	  1000	     0
  1327	     1	  1000	  1000	     0
  1329	     1	  1000	  1000	     0
  1331	     1	  1000	  1000	     0
  1332	     1	  1000	  1000	     0
  1334	     1	  1000	  1000	     0
  1336	     1	  1000	  1000	     0
  1337	     1	  1000	  1000	     0
  1339	     1	  1000	  1000	     0
  1341	     1	  1000	  1000	     0
  1342	     1	  1000	  1000	     0
  1344	     1	  1000	  1000	     0
  1346	     1	  1000	  1000	     0
  1347	     1	  1000	  1000	     0
  1349	     1	  1000	  1000	     0
  1351	     1	  1000	  1000	     0
  1352	     1	  1000	  1000	     0
  1354	     1	  1000	  1000	     0
  1356	     1	  1000	  1000	     0
  1357	     1	  1000	  1000	     0
  1359	     1	  1000	  1000	     0
  1361	     1	  1000	  1000	     0
  1362	     1	  1000	  1000	     0
  1364	     1	  1000	  1000	     0
  1366	     1	  1000	  1000	     0
  1367	     1	  1000	  1000	     0
  1369	     1	  1000	  1000	     0
  1371	     1	  1000	  1000	     0
  1372	     1	  1000	  1000	     0
  1374	     1	  1000	  1000	     0
  1376	     1	  1000	  1000	     0
  1377	     1	  1000	  1000	     0
  1379	     1	  1000	  1000	     0
  1381	     1	  1000	  1000	     0
  1382	     1	  1000	  1000	     0
  1384	     1	  1000	  1000	     0
  1386	     1	  1000	  1000	     0
  1387	     1	  1000	  1000	     0
  1389	     1	  1000	  1000	     0
  1391	     1	  1000	  1000	     0
  1392	     1	  1000	  1000	     0
  1394	     1	  1000	  1000	     0
  1396	     1	  1000	  1000	     0
  1397	     1	  1000	  1000	     0
  1399	     1	  1000	  1000	     0
  1401	     1	  1000	  1000	     0
  1402	     1	  1000	  1000	     0
  1404	     1	  1000	  1000	     0
  1406	     1	  1000	  1000	     0
  1407	     1	  1000	  1000	     0
  1409	     1	  1000	  1000	     0
  1411	     1	  1000	  1000	     0
  1412	     1	  1000	  1000	     0
  1414	     1	  1000	  1000	     0
  1416	     1	  1000	  1000	     0
  1417	     1	  1000	  1000	     0
  1419	     1	  1000	  1000	     0
  1421	     1	  1000	  1000	     0
  1422	     1	  1000	  1000	     0
  1424	     1	  1000	  1000	     0
  1426	     1	  1000	  1000	     0
  1427	     1	  1000	  1000	     0
  1429	     1	  1000	  1000	     0
  1431	     1	  1000	  1000	     0
  1432	     1	  1000	  1000	     0
  1434	     1	  1000	  1000	     0
  1436	     1	  1000	  1000	     0
  1437	     1	  1000	  1000	     0
  1439	     1	  1000	  1000	     0
  1441	     1	  1000	  1000	     0
  1442	     1	  1000	  1000	     0
  1444	     1	  1000	  1000	     0
  1446	     1	  1000	  1000	     0
  1447	     1	  1000	  1000	     0
  1449	     1	  1000	  1000	     0
  1451	     1	  1000	  1000	     0
  1452	     1	  1000	  1000	     0
  1454	     1	  1000	  1000	     0
  1456	     1	  1000	  1000	     0
  1457	     1	  1000	  1000	     0
  1459	     1	  1000	  1000	     0
  1461	     1	  1000	  1000	     0
  1462	     1	  1000	  1000	     0
  1464	     1	  1000	  1000	     0
  1466	     1	  1000	  1000	     0
  1467	     1	  1000	  1000	     0
  1469	     1	  1000	  1000	     0
  1471	     1	  1000	  1000	     0
  1472	     1	  1000	  1000	     0
  1474	     1	  1000	  1000	     0
  1476	     1	  1000	  1000	     0
  1477	     1	  1000	  1000	     0
  1479	     1	  1000	  1000	     0
  1481	     1	  1000	  1000	     0
  1482	     1	  1000	  1000	     0
  1484	     1	  1000	  1000	     0
  1486	     1	  1000	  1000	     0
  1487	     1	  1000	  1000	     0
  1489	     1	  1000	  1000	     0
  1491	     1	  1000	  1000	     0
  1492	     1	  1000	  1000	     0
  1494	     1	  1000	  1000	     0
  1496	     1	  1000	  1000	     0
  1497	     1	  1000	  1000	     0
  1499	     1	  1000	  1000	     0
  1501	     1	  1000	  1000	     0
  1502	     1	  1000	  1000	     0
  1504	     1	  1000	  1000	     0
  1506	     1	  1000	  1000	     0
  1507	     1	  1000	  1000	     0
  1509	     1	  1000	  1000	     0
  1511	     1	  1000	  1000	     0
  1512	     1	  1000	  1000	     0
  1514	     1	  1000	  1000	     0
  1516	     1	  1000	  1000	     0
  1517	     1	  1000	  1000	     0
  1519	     1	  1000	  1000	     0
  1521	     1	  1000	  1000	     0
  1522	     1	  1000	  1000	     0
  1524	     1	  1000	  1000	     0
  1526	     1	  1000	  1000	     0
  1527	     1	  1000	  1000	     0
  1529	     1	  1000	  1000	     0
  1531	     1	  1000	  1000	     0
  1532	     1	  1000	  1000	     0
  1534	     1	  1000	  1000	     0
  1536	     1	  1000	  1000	     0
  1537	     1	  1000	  1000	     0
  1539	     1	  1000	  1000	     0
  1541	     1	  1000	  1000	     0
  1542	     1	  1000	  1000	     0
  1544	     1	  1000	  1000	     0
  1546	     1	  1000	  1000	     0
  1547	     1	  1000	  1000	     0
  1549	     1	  1000	  1000	     0
  1551	     1	  1000	  1000	     0
  1552	     1	  1000	  1000	     0
  1554	     1	  1000	  1000	     0
  1556	     1	  1000	  1000	     0
  1557	     1	  1000	  1000	     0
  1559	     1	  1000	  1000	     0
  1561	     1	  1000	  1000	     0
  1562	     1	  1000	  1000	     0
  1564	     1	  1000	  1000	     0
  1566	     1	  1000	  1000	     0
  1567	     1	  1000	  1000	     0
  1569	     1	  1000	  1000	     0
  1571	     1	  1000	  1000	     0
  1572	     1	  1000	  1000	     0
  1574	     1	  1000	  1000	     0
  1576	     1	  1000	  1000	     0
  1577	     1	  1000	  1000	     0
  1579	     1	  1000	  1000	     0
  1581	     1	  1000	  1000	     0
  1582	     1	  1000	  1000	     0
  1584	     1	  1000	  1000	     0
  1586	     1	  1000	  1000	     0
  1587	     1	  1000	  1000	     0
  1589	     1	  1000	  1000	     0
  1591	     1	  1000	  1000	     0
  1592	     1	  1000	  1000	     0
  1594	     1	  1000	  1000	     0
  1596	     1	  1000	  1000	     0
  1597	     1	  1000	  1000	     0
  1599	     1	  1000	  1000	     0
  1601	     1	  1000	  1000	     0
  1602	     1	  1000	  1000	     0
  1604	     1	  1000	  1000	     0
  1606	     1	  1000	  1000	     0
  1607	     1	  1000	  1000	     0
  1609	     1	  1000	  1000	     0
  1611	     1	  1000	  1000	     0
  1612	     1	  1000	  1000	     0
  1614	     1	  1000	  1000	     0
  1616	     1	  1000	  1000	     0
  1617	     1	  1000	  1000	     0
  1619	     1	  1000	  1000	     0
  1621	     1	  1000	  1000	     0
  1622	     1	  1000	  1000	     0
  1624	     1	  1000	  1000	     0
  1626	     1	  1000	  1000	     0
  1627	     1	  1000	  1000	     0
  1629	     1	  1000	  1000	     0
  1631	     1	  1000	  1000	     0
  1632	     1	  1000	  1000	     0
  1634	     1	  1000	  1000	     0
  1636	     1	  1000	  1000	     0
  1637	     1	  1000	  1000	     0
  1639	     1	  1000	  1000	     0
  1641	     1	  1000	  1000	     0
  1642	     1	  1000	  1000	     0
  1644	     1	  1000	  1000	     0
  1646	     1	  1000	  1000	     0
  1647	     1	  1000	  1000	     0
  1649	     1	  1000	  1000	     0
  1651	     1	  1000	  1000	     0
  1652	     1	  1000	  1000	     0
  1654	     1	  1000	  1000	     0
  1656	     1	  1000	  1000	     0
  1657	     1	  1000	  1000	     0
  1659	     1	  1000	  1000	     0
  1661	     1	  1000	  1000	     0
  1662	     1	  1000	  1000	     0
  1664	     1	  1000	  1000	     0
  1666	     1	  1000	  1000	     0
  1667	     1	  1000	  1000	     0
  1669	     1	  1000	  1000	     0
  1671	     1	  1000	  1000	     0
  1672	     1	  1000	  1000	     0
  1674	     1	  1000	  1000	     0
  1676	     1	  1000	  1000	     0
  1677	     1	  1000	  1000	     0
  1679	     1	  1000	  1000	     0
  1681	     1	  1000	  1000	     0
  1682	     1	  1000	  1000	     0
  1684	     1	  1000	  1000	     0
  1686	     1	  1000	  1000	     0
  1687	     1	  1000	  1000	     0
  1689	     1	  1000	  1000	     0
  1691	     1	  1000	  1000	     0
  1692	     1	  1000	  1000	     0
  1694	     1	  1000	  1000	     0
  1696	     1	  1000	  1000	     0
  1697	     1	  1000	  1000	     0
  1699	     1	  1000	  1000	     0
  1701	     1	  1000	  1000	     0
  1702	     1	  1000	  1000	     0
  1704	     1	  1000	  1000	     0
  1706	     1	  1000	  1000	     0
  1707	     1	  1000	  1000	     0
  1709	     1	  1000	  1000	     0
  1711	     1	  1000	  1000	     0
  1712	     1	  1000	  1000	     0
  1714	     1	  1000	  1000	     0
  1716	     1	  1000	  1000	     0
  1717	     1	  1000	  1000	     0
  1719	     1	  1000	  1000	     0
  1721	     1	  1000	  1000	     0
  1722	     1	  1000	  1000	     0
  1724	     1	  1000	  1000	     0
  1726	     1	  1000	  1000	     0
  1727	     1	  1000	  1000	     0
  1729	     1	  1000	  1000	     0
  1731	     1	  1000	  1000	     0
  1732	     1	  1000	  1000	     0
  1734	     1	  1000	  1000	     0
  1736	     1	  1000	  1000	     0
  1737	     1	  1000	  1000	     0
  1739	     1	  1000	  1000	     0
  1741	     1	  1000	  1000	     0
  1742	     1	  1000	  1000	     0
  1744	     1	  1000	  1000	     0
  1746	     1	  1000	  1000	     0
  1747	     1	  1000	  1000	     0
  1749	     1	  1000	  1000	     0
  1751	     1	  1000	  1000	     0
  1752	     1	  1000	  1000	     0
  1754	     1	  1000	  1000	     0
  1756	     1	  1000	  1000	     0
  1757	     1	  1000	  1000	     0
  1759	     1	  1000	  1000	     0
  1761	     1	  1000	  1000	     0
  1762	     1	  1000	  1000	     0
  1764	     1	  1000	  1000	     0
  1766	     1	  1000	  1000	     0
  1767	     1	  1000	  1000	     0
  1769	     1	  1000	  1000	     0
  1771	     1	  1000	  1000	     0
  1772	     1	  1000	  1000	     0
  1774	     1	  1000	  1000	     0
  1776	     1	  1000	  1000	     0
  1777	     1	  1000	  1000	     0
  1779	     1	  1000	  1000	     0
  1781	     1	  1000	  1000	     0
  1782	     1	  1000	  1000	     0
  1784	     1	  1000	  1000	     0
  1786	     1	  1000	  1000	     0
  1787	     1	  1000	  1000	     0
  1789	     1	  1000	  1000	     0
  1791	     1	  1000	  1000	     0
  1792	     1	  1000	  1000	     0
  1794	     1	  1000	  1000	     0
  1796	     1	  1000	  1000	     0
  1797	     1	  1000	  1000	     0
  1799	     1	  1000	  1000	     0
#endif 


#ifdef POSRES_Oct_500 
[ position_restraints ] 
; atom  type      fx      fy      fz
#endif 


#ifdef POSRES_Y_100 
[ position_restraints ] 
; atom  type      fx      fy      fz
#endif 


